200
Lattice="11.841765243865119 0.0 0.0 0.0 11.841765243865119 0.0 0.0 0.0 11.841765243865119" Properties=species:S:1:pos:R:3:gap17_energy:R:1 anneal_T=2700 density=2.4 run_id=197 time=0 pbc="T T T"
C        2.28878823       1.91482528       0.96865877    -143.55246986
C        2.08823609       5.59047369       8.02524720    -148.44108660
C        8.06431318       7.97374736       5.75670839    -153.12572277
C        4.34508708       5.79011401       0.99155245    -149.49677147
C        8.28998170       1.55553428       2.24947357    -155.16306760
C        5.24487177       0.67614822       6.59604087    -151.89817261
C        7.20974035       0.88489722       8.06522500    -151.62817242
C       11.11194541       9.88363463       5.62602267    -154.56108277
C        0.92975738       7.19098299       8.92667789    -156.46899756
C        9.60351767       0.46358616       9.19478730    -154.10089063
C        2.12377323       0.88808147      11.51609302    -152.03342751
C       10.95683013       2.93294473      10.33694924    -153.85358710
C        5.70230732      10.29212816       6.95206354    -153.32626106
C       10.17309474       4.48824218       2.27183082    -153.68039418
C        0.83178572       3.76782471       4.10350323    -152.77865294
C        4.89561075       6.57985317      10.06801091    -154.03150281
C        3.70538308       9.41952032       3.35037880    -155.38233409
C        4.69804273       8.44079842       4.79587940    -152.24071203
C       10.39040297       1.07491492       2.00186226    -151.12547976
C        7.41365555       5.65771123       8.84572759    -156.25166480
C        6.70166941       0.43108170      11.31221334    -151.58239581
C        0.43029422      10.49638677      10.30873032    -153.91232177
C        4.52462008       4.65289008       3.74650953    -153.22282115
C        6.06986387       5.24604410       0.48845269    -153.01865515
C        5.18303407      10.16710280       0.19776695    -154.50295055
C        4.41823366      11.60024060       7.10266711    -154.54671457
C        8.69526612       3.30886157       8.97438837    -154.15480596
C        2.21932443       4.93033080       1.75856135    -139.77218618
C        9.18306395      11.66576109       2.07730614    -155.29579582
C        7.37351196      11.02989382       7.11347864    -154.16137146
C       10.10061129       2.78003202       8.27037174    -155.80498424
C       10.73472598       8.76189973       1.63020845    -154.43095314
C        9.58098279       7.57264309       0.67103021    -154.98932515
C        1.45738973       3.82140869       9.67153677    -154.48434119
C        3.53327486       1.28262896       7.14076207    -151.57728937
C        8.99515882       3.89618944       3.43878942    -154.72193896
C        4.91312472       8.35312199       8.65411598    -153.58146829
C        6.97845883       4.77171036       0.24564321    -153.56204114
C        0.97060318      11.43290462       0.40447325    -152.82849061
C        0.36893493       3.63047207       7.41478052    -154.77053104
C       10.18995741       6.59553167       4.64629422    -154.04715230
C        7.04693976      11.61584805       1.52501805    -153.97980445
C        0.17114430       5.78945087       9.17316424    -153.52348271
C        3.35252216       8.65867506       8.74513179    -152.89595383
C        8.42078584       8.72785466       6.76612414    -157.47585392
C        6.93700081       4.09526136       9.99896158    -155.11322812
C        6.78661040       8.41639255       7.87350682    -153.74938716
C        4.85628424       2.80212875       5.67182662    -154.47909427
C        0.97800429       2.68340321       8.69298066    -154.63917278
C        9.93961065       0.05271824       5.41886283    -154.47726956
C        9.20570541       8.57739319      10.02723971    -156.00778132
C        4.46991113       0.91745616       8.91343880    -153.24467796
C        6.07650710       8.63397314       8.81075885    -155.94808465
C        5.65324689       8.03422326       4.78886907    -152.75200402
C       11.37965220      11.29313626       9.04734548    -155.78539676
C        0.10052782       7.71899547       2.55050308    -153.34848340
C        4.17237493       5.13633015      11.06867560    -153.80245626
C        4.85511191       8.01885264       0.01711218    -153.03137518
C        8.52650912       2.49270343       0.81202300    -152.27755494
C        3.37528203      10.36015910       2.57333401    -154.72741291
C        6.77530151       6.18397112       7.91283332    -155.63890438
C        6.93016812       8.64897666       0.10735922    -153.34610227
C       11.02732416       2.04785567       0.36410586    -153.43248776
C        1.84221158       5.55413131       3.96971496    -154.58108749
C        0.73328710      11.21756211       5.80608855    -152.02761343
C        4.24095060       6.22846063       4.48448834    -155.55183335
C        8.16025516       0.11883804       5.49723163    -154.35089617
C        6.47060105       7.00432125       6.88939692    -154.13652877
C       11.76941206       4.07221728       3.39572092    -150.41437035
C        2.37813435       5.23132479       7.12425465    -151.37937021
C        3.54833759       2.02174458      10.32497722    -149.16255766
C        1.71892696       9.60710572       3.93386994    -153.52386939
C        5.82798397       1.19514200       9.67433143    -155.67013628
C        1.01488191       0.17558141       6.58862792    -150.91146114
C        2.22497296       3.41492826       7.06551949    -155.34908141
C        6.68021213       5.49148837       1.80605867    -153.59265320
C       10.88223885      10.21595008       7.93674184    -152.60321501
C        9.63999031       0.52706631      11.62770165    -151.61048200
C        4.71370939       1.62567306      11.66467164    -155.51310311
C       11.66383088       2.67448636       4.73899156    -152.96156153
C        8.87225314       3.11226458      11.09869447    -154.35148519
C        7.64681991       4.41258514       3.40740874    -156.07403560
C        5.82261965       7.97711042       3.52415670    -157.43644773
C        6.12935690       4.99561445      10.69525737    -154.52583433
C        8.83312795       8.74918167       3.94802085    -152.76229642
C        4.34412790       4.28873212       6.34462835    -155.24766745
C        4.56380448       3.28064264      11.34274141    -153.27076389
C       11.66578477       1.51070136       4.77932461    -153.67721563
C        2.55161621       4.39958288       5.40297118    -154.35258712
C       10.36605630      10.89098991       2.73377808    -153.04706855
C        7.88987214       5.16670428       7.76160214    -150.66184148
C       10.77382749      11.36180666       8.07127614    -152.74407150
C        1.57283510      11.03384897       2.57589183    -153.12379645
C       10.18178659       7.46811583       5.44219110    -156.13834980
C        3.15175687       2.43646688      11.18066317    -153.10078903
C        0.31974187       4.08810893      11.08646193    -155.75954731
C        7.50765548       3.67881016      11.18814717    -155.26158141
C        1.62617041      11.80458210      11.47152061    -152.65802982
C        9.05942408       7.76969006      11.31023577    -156.43238390
C        0.95054086       8.88572907       5.96817863    -150.39374387
C        4.63980493       9.53830507       8.60995804    -155.86609546
C        4.65908333      11.81001747       3.57665125    -153.31713369
C        2.24971040       8.79113705       2.42533562    -153.72246101
C        2.80218796       4.84064127       1.40259788    -141.33911488
C        9.04761784       9.57345143       1.28468943    -154.14362470
C        1.67473349       3.51124918       2.63317044    -152.98693107
C        2.86963866       6.42926145       9.15591079    -154.85832593
C        0.68339419       9.82122852       5.63319878    -154.37133144
C       11.80441632       7.78591328       8.19376736    -154.22922354
C        5.92297861       0.88120496      10.87239834    -155.34296308
C        6.39355852       0.84229529       8.68604138    -153.44779632
C        8.87773588       5.97747442       5.62064651    -153.44326077
C        4.40208150       1.08225919       6.23171712    -152.33289279
C        8.31629410       6.29105620       9.00184942    -150.73916630
C        6.10605231       6.82510797       9.31788245    -154.51482449
C        1.62082978       9.22924684       5.07101097    -153.58172557
C        0.37538514       6.76891880      11.69765096    -151.14789984
C        3.11616052      11.50698670      10.18842982    -154.32807854
C        0.90532190       4.77306032       0.38935961    -154.36284573
C        7.42486970       0.42156211       3.61144236    -153.83421123
C        6.81937656       6.01399442       0.77173731    -150.58817539
C        8.62886934      10.35426190       6.05121309    -156.04846144
C        3.24765149      10.82133665       5.75105987    -153.88789711
C        9.40804565       7.68387279       6.93163649    -153.85060783
C        1.93213794      11.50648934       9.01469773    -153.96961770
C        9.99853527      10.27436551       9.62891826    -153.30685620
C        2.65310014       1.25622182       1.16369619    -142.76065275
C        2.15505917       0.66471144       3.56100828    -155.36829656
C        2.31169020       4.85772894       8.46726477    -148.28934203
C        8.94287743      10.00404170       7.64750673    -154.10647095
C       10.90951043       5.06495983       6.01142476    -153.86676682
C        3.68940854       3.64881497      10.73933242    -155.02584259
C        5.95644344       1.33422353       2.59013747    -153.54055094
C       10.93983719       1.81935697       6.58306229    -154.82839451
C        8.65152264       0.82929185      10.71907116    -153.47918080
C       10.53216074      11.31642901       9.86338521    -154.08246508
C        5.64033936       6.09709993       3.19648322    -154.76964689
C        5.94783448       7.86211504      10.51224289    -155.68006475
C        7.30056669       1.99997942       2.91190192    -157.37927427
C        5.38432040       2.80762333       1.15114274    -152.78656078
C        0.37399018      10.21266992       4.33949777    -153.82980954
C       10.03543422      10.49927616       6.14253678    -155.73174582
C        3.12607208       6.46391045       4.51538351    -154.42273914
C        6.33521415       4.67180138       3.39763928    -155.87509734
C        8.18809515       5.09675497      10.29043479    -154.81934048
C        5.37905081       9.59676786       4.72755241    -153.13835984
C        9.27019566       1.78912494       1.07411087    -154.96754375
C        4.37857559       4.90697884       0.45364145    -153.22523165
C        6.13496990       4.62941970       9.33671086    -152.75041245
C        1.89220751       8.29645915       5.88825856    -148.52257878
C        1.37912751       9.04060752       7.94762443    -153.99302853
C        2.96393463       0.40016759       5.91853795    -155.62535772
C       11.67960411       8.10951320       3.48511440    -154.24625754
C        1.96377914       4.08005653      10.71470155    -155.22378895
C        3.31139571       1.56901021       2.78663972    -153.83773956
C        8.38354349      11.77476454       7.34651274    -153.66172996
C        0.24519559       2.51118842       5.85598975    -152.92502881
C        2.95894925      10.43503458       0.00063069    -153.50285413
C        8.45144417       9.48231720       5.34199793    -154.71611620
C        6.54465945      10.68739444       9.37311244    -154.50192506
C        5.18661028       1.03919187       7.75051824    -155.81990213
C        5.63900124       9.41732959       9.95718383    -155.00029782
C        1.00344277       4.37240603       3.17599696    -153.38865335
C        0.58154435      10.30537910       2.92197926    -154.66997611
C        5.39375828       1.42971553       4.97535319    -154.89927779
C        2.51270417       2.81254950       5.74963885    -154.84447690
C       11.59102771       9.13225094      10.71125560    -150.34356263
C        9.48181985       1.45892916      11.19066947    -153.44229520
C        3.85602217       8.36812551       6.87245135    -153.51035841
C       11.81265818      11.67561344       0.82230757    -152.15953758
C        0.97006912       2.49056007       3.31394169    -150.98524072
C        9.67286305       6.00253159      10.36126039    -153.76658161
C        6.98846513       1.72411365       4.76201195    -156.06942301
C        9.48714864       2.56882229       6.88991796    -154.68625769
C        7.89194445      10.87871000      11.09125785    -153.80868365
C        5.32389187       3.63037734       7.43505362    -152.47776634
C       10.37241533       0.05611564       1.75067473    -152.90431510
C        2.84038949       5.21236612      11.69464315    -154.62289968
C        1.96607644       1.04717796       1.81073617    -150.66533716
C       11.27462758       8.68007313       5.42367058    -153.72631286
C        0.13408549       0.68709711       9.38044250    -151.91079419
C        1.64865792       2.77318748      10.66494246    -154.29488274
C       11.54086599      10.74803612       2.56316193    -152.36414666
C        0.15993488      10.53161602      11.54955784    -157.29271837
C        8.29122509      10.93005590       1.36460950    -156.68074836
C       10.79038227       9.62702357      11.07668063    -152.21306212
C        1.59321478      10.76352515       6.11358367    -153.43429421
C        8.52468549       8.76056161       8.61437502    -154.70342246
C        0.79005534       2.17565200       4.25526729    -150.70329574
C       10.71305555       4.76068567       4.85364353    -156.00434653
C        6.69051447       7.45481752       2.55225566    -154.33650380
C        7.66343390       2.73399123       4.34377264    -154.96058966
C       11.14838252       0.93717270       3.91198636    -152.53661337
C        9.83301108      11.68351189       3.23739652    -150.71105538
C        4.81730115      10.32611403       7.83736575    -155.25882060
C        5.45302632       9.55594930       1.25654155    -154.90150668
C        1.48572708      10.39762645      10.73435888    -152.85882346
C        6.43081272       0.21757704       6.96967224    -155.27910696
C        2.07015372       0.01235511       4.70279128    -155.71202183
C        3.78686627       6.55020139       8.32045056    -154.27130748
200
Lattice="11.841765243865119 0.0 0.0 0.0 11.841765243865119 0.0 0.0 0.0 11.841765243865119" Properties=species:S:1:pos:R:3:gap17_energy:R:1 anneal_T=2700 density=2.4 run_id=197 time=1 pbc="T T T"
C       10.85883952       8.58442719       8.80808261    -155.76112971
C        9.60819517       2.21084573       1.34040493    -157.11523418
C        2.78208064      11.08496987       0.18902299    -154.87257094
C        8.70391061       3.46679519       5.09474187    -156.46715207
C       11.45321324       5.15318098       3.54735472    -156.68696691
C        5.57070978      10.64945343       3.85528799    -156.29358090
C        6.71849656       3.86099572       9.63861666    -154.75447770
C        1.08362099       8.80945626       9.84190425    -155.22003803
C       10.79793732       7.23663300       3.70925534    -155.99034032
C        1.30618223       5.17055285       1.51052373    -156.25991214
C        4.29555298       7.28280404       9.42288338    -155.56181503
C        0.28561272       6.13615407       1.20928107    -156.42749714
C        3.76006835       4.58427890       8.26719815    -155.77507459
C        6.03862529       0.69163843       7.75070771    -157.33395310
C        4.00775071      11.48179926      10.92939276    -154.80965228
C        1.57085753       0.95452917       9.01150046    -156.42576357
C        7.87254764       0.48666695       5.37600748    -154.00493098
C       10.71612257       2.76980073       4.63562479    -155.39538114
C        2.80931670      11.28445625       1.59943171    -155.44233780
C        6.38359960      10.83380603       8.32126765    -155.33932021
C        6.78433678      11.01597974       6.50321327    -155.90802894
C        4.65518739       6.74488001       1.76198362    -155.22326873
C        0.42484701       3.53244594       6.81722136    -157.18197521
C       10.87790476       5.32046960       1.60795778    -155.20211608
C        6.04292385       5.20587684      11.82894061    -156.00533705
C        1.72516757       2.14424764       1.09058632    -154.50982135
C        8.21992582      11.57379794      10.32503643    -153.90310346
C        7.73134643       9.55938341      10.15399397    -153.93346523
C        7.74083168       4.03337629       2.11689316    -156.61350525
C        3.84489092       5.62481481       1.84866534    -156.78446096
C        3.42968310       7.30833489      11.34277694    -154.70298109
C        1.64574485       6.60922075      10.05981641    -156.24268329
C        6.70266412       7.39136935      10.60536653    -154.78994337
C        0.72480721      10.58941568       6.35722799    -156.30166161
C        9.82067196       1.18088451       3.77991515    -155.25270484
C        5.60406803       8.33540671       8.67446014    -155.15265879
C        0.16045237       2.26400341      10.64148392    -158.21544401
C        9.75543568       8.26452191      10.89409245    -155.46897600
C        4.15510964       3.82086397      11.75549798    -153.59033800
C        4.97313878       4.33773334       6.16841104    -154.06938091
C        3.29408305      10.83044297       9.13615872    -158.37462674
C        1.04178877      -0.12258477       6.45205684    -155.53493687
C        5.68558675       2.63000869       9.05981486    -156.25086989
C        4.01806489       0.64546976       4.95223807    -156.06320826
C        6.60359591       6.24857979       3.00142566    -155.93929342
C        9.55161521       7.49769656       2.25997721    -154.80955017
C        9.08610358       8.92023597       2.21719292    -156.27160980
C        2.23623447       4.79815302       7.88861691    -155.88602811
C       10.57862783       3.09259541       1.14474581    -155.77755890
C        4.27842978      10.21602114       9.95566808    -155.82319090
C        4.29831211      10.62116345       6.91247652    -156.38259117
C        3.37895298       6.94731499       8.27993988    -154.87969679
C        3.37468994       7.55199105       4.28603220    -155.54507204
C        4.44991039       4.96162859       3.76533794    -155.74557911
C        0.15144789       5.75235062      11.66264670    -155.38027611
C        2.17910980       1.82306344      10.41940345    -155.66373432
C       10.44794211       2.16286290       7.67889925    -156.23064436
C        4.97445322       1.07598068       4.16168182    -155.70130461
C        8.81856258       7.39662709      10.87637717    -157.58665507
C        0.58070240       9.80628422       3.08177204    -156.37640630
C        3.81761933      10.39651332       5.57663066    -155.62666653
C        5.82057103       2.04027694       7.74068958    -156.14257835
C        6.43637835      -0.01167919      11.19220889    -155.90887383
C        0.17030945      10.38894643       8.01913685    -155.01064246
C       10.33763606       0.73201885       5.10942566    -156.68217320
C        0.24892693       6.60703003      10.86598010    -155.77107624
C        7.36544772       3.87281380       7.22724248    -155.18928641
C        7.08715440       0.33205968       7.20252872    -154.95976950
C        0.36885204       5.47273102       8.74778435    -154.81867723
C        0.72967418       5.04146577       7.29993908    -155.74904121
C       10.30264365       1.68051227      10.62803167    -153.28678863
C        8.13369408       8.34671560       3.45236008    -155.96636092
C        0.16677232       8.39482869       7.62964935    -154.54196871
C        6.12973584       9.39101719       3.84181206    -154.38701434
C       11.09135258       3.87836759       5.90087004    -156.70602902
C       11.13202904      11.12237801      11.22611187    -154.98686913
C        1.86259126      10.20959106       9.33613061    -155.24569753
C        2.12582185       5.99365027       8.71439057    -156.33317877
C        3.23943330       2.95498226       6.23433415    -155.01208464
C        5.14375494       7.38677474       7.73830938    -156.39854405
C       10.12110939       5.22241978      10.69007068    -155.23258395
C        1.88452220       0.91181000       6.31886067    -156.30801121
C        1.54987392       8.53929823       1.13739563    -154.61443999
C        8.48495637       0.20227156      11.43495324    -156.89690669
C        8.39422476       9.63302735       1.19328284    -157.96503493
C       10.90380270       7.76163766       6.19853649    -156.48531490
C        9.03312352       5.21093327       5.04867740    -154.49993995
C       10.07757906       4.64752576       6.51837073    -156.12483178
C       10.83586650       0.38402371       9.41545860    -156.31726426
C        4.88039408       6.88322736       5.22604336    -156.55871462
C        6.94617818       7.92411852       2.69497262    -156.30022438
C       11.52692823       0.76693666      10.72507494    -157.80526398
C        9.59837834       3.44192749       3.84127918    -157.93657091
C        2.72050346       5.63226328       1.42938396    -154.99628311
C        0.75017938       2.72694538       7.92022258    -155.64281349
C       11.30725164       7.49089938       2.57475502    -154.51748913
C       11.69033275       8.43758931       1.19643275    -155.20996193
C        8.26704420       6.99639911       4.20836206    -155.03458726
C        0.30664843       2.87391353       0.31695077    -155.29744049
C        2.18188077       7.70482087      10.31317098    -156.19983799
C        8.96236897      10.90340008       3.60239525    -155.84319897
C        2.00270302       0.47912730       2.33198699    -155.74471254
C       11.54045153       2.12404559       7.16039572    -155.89733667
C        8.58741132      11.22838549       5.22599600    -156.73305798
C        1.66471536       6.96495922       6.76679912    -153.95830686
C        6.43290871       5.59365912      10.16385816    -156.06267220
C        5.41066832       9.10529908       7.58970707    -154.96162661
C        2.99995728       1.70605496       5.48065316    -156.84519122
C        2.15977220       1.69092118       7.84878121    -157.10306156
C        1.85664669       3.80492496       2.67347981    -155.25992115
C        8.14715817       8.91616241       6.23884586    -154.03227440
C        6.52441003       7.36241623       7.02426278    -156.31970922
C       11.45147250       9.87900450       1.42078684    -157.56638003
C        4.80412127       2.30746269       2.90270086    -156.97866593
C        7.77803851       8.40323634       9.87843609    -156.61091457
C       10.48424896       0.83555614       7.99937294    -155.48457711
C        4.98027937       8.49926122       1.23921705    -155.13338344
C        6.24713510       9.63936269       8.56296992    -155.37686436
C        4.62289489       9.33827397      11.16442811    -157.70880921
C        0.24058796       4.10813336       2.99653501    -155.64236613
C        4.55289822       5.66351370       5.23642859    -156.15087270
C        9.45178913       5.31266588       0.47874244    -155.59472314
C        7.92504218       2.95430728       6.06528111    -156.89937037
C        7.82856732       6.32510128      10.54980497    -155.91910447
C        7.12278627       9.72258662       6.47871266    -156.81112779
C       10.61502942      10.20609774       0.06795089    -157.40681591
C        8.09355050      10.60087851       2.57128538    -155.18226916
C        4.12449868       2.07121948       1.75361149    -155.10842717
C       11.26804356       8.90853631       5.36866558    -154.55191377
C       10.61604781       5.74075753       9.66960656    -155.82391804
C        9.10256363       2.35763625       6.90342941    -154.41376715
C        7.82096491      10.99821710       1.05112127    -155.92189471
C        9.51015719       7.39592843       3.68904144    -157.90889937
C        8.07883119       2.97963681       1.60369474    -156.67403721
C        4.24196899       3.78092170       7.07983619    -158.09982423
C        8.60645288       3.36004168       8.66768665    -154.99717433
C       10.17526178      11.16118347       5.08503162    -156.04028752
C        1.07760537       1.21561641      10.87156942    -155.45313577
C        5.10312584      11.04790514       2.61736169    -154.30959254
C        2.65048311       2.17247841       2.47629074    -155.94875183
C        3.25514732       2.71087611      10.32482327    -155.83809376
C        5.43269401       7.66337469       6.09872225    -156.11058547
C        0.34648887      11.50727090       3.22400348    -156.26934473
C        5.40237909       5.84600714       0.88035117    -155.00984600
C        7.56891293       5.12673832       6.51636947    -156.48075419
C        4.92549936       9.58513925       2.62447859    -156.55058213
C       11.57082566       6.03908712       4.49089473    -156.95657369
C        8.22700719       5.95428824       0.27186917    -156.58676537
C        0.28107614       5.83292199       5.63758023    -155.51265304
C        7.01345125       9.55526248       1.02111660    -156.07146298
C        3.32134279       4.68142874       2.31682953    -154.16822258
C        3.59047059       2.02289323       8.48455375    -155.10899832
C        3.84240414       5.20788994      10.57993042    -154.93017006
C        9.06121219       0.80955873       0.69661079    -155.56554183
C        6.97052485       3.64115334       3.42635556    -155.58881730
C        1.71205874       9.10263468       2.46686469    -155.55528219
C        5.63214486       1.01443666      10.35517372    -156.37890855
C        6.37585508       8.44086947       1.57822310    -157.37188711
C        8.24426065       5.73756025       3.71969977    -156.53558791
C        7.88513543       1.50880668       1.74463543    -154.13728051
C       10.13824442       9.88308991       4.42884388    -157.25733997
C       10.95088556       7.62329032      10.02770154    -156.29919029
C       10.47747547       7.86553731       7.57367332    -155.95955050
C        9.57732369       4.26890900       7.84770361    -155.28324585
C        5.97131670       1.84786010       3.13520208    -154.04198347
C        0.12123599      11.19902975       1.84506544    -154.76018452
C        7.02692718       6.10726017       6.85376505    -156.17049487
C        0.74894547       7.21504546       5.79003112    -156.25161432
C        6.00982612       5.29167043       3.43459743    -155.61400797
C       11.18164604       4.03778143       1.89234961    -157.52835789
C       11.34833073       2.83760668       9.53633934    -153.81241475
C        4.00897041      11.35905937       7.98335103    -155.32913098
C        4.99748545       2.32418326       6.44469127    -154.52932303
C        2.50692539       8.65001873       6.14160128    -155.52498925
C        5.94584506       0.41274710       8.98180131    -155.23305354
C        3.92348471       8.08937036       3.31668898    -154.35632169
C        1.42249205       9.42338074       6.04795660    -155.82963964
C        2.11056966      11.69428790       9.44975235    -156.01076275
C        6.40264116      11.76074389       0.97130540    -154.40207408
C        3.28150709       8.79910656       4.78342186    -156.98454197
C        9.27404424       9.60641890       0.00820219    -155.83547878
C       11.72671065      11.58205165       8.44947844    -156.53161521
C        2.85230231      10.82544574       4.36866403    -154.75576225
C        4.95458274       2.49685989       1.19239471    -154.70221894
C        4.59572988       7.81552954      11.11479928    -156.24198223
C       11.79361663       1.50765803       5.18952336    -154.89955004
C        8.08828091       7.28548028       0.21053948    -154.08060659
C        3.66649472       3.54289038       9.01656873    -155.62281845
C        9.46244672       8.50997802       4.88284532    -154.43522699
C        9.69326641       2.26296134       2.86368225    -156.78538134
C        4.93922397       5.56835327       9.94690518    -156.24433794
C        9.86683116       4.66297927       3.41677558    -156.05229961
C        7.29376952       3.66392506       4.92567699    -155.68591525
C        5.71296491       9.91200750      11.59428419    -154.56053180
C        5.04293415       2.58426395      10.31897344    -156.02333707
C        1.81357819      10.15771228       4.27802716    -155.78658465
C       10.51152055       9.90048546       2.86974523    -155.05553549
C        5.27908263       3.57235269      11.83956268    -155.86336531
C       11.62063212       0.71649074       3.96159151    -156.57931974
C        8.07595364       5.64149985       2.41470172    -154.80867274
200
Lattice="11.841765243865119 0.0 0.0 0.0 11.841765243865119 0.0 0.0 0.0 11.841765243865119" Properties=species:S:1:pos:R:3:gap17_energy:R:1 anneal_T=2700 density=2.4 run_id=197 time=2 pbc="T T T"
C       10.62456204      10.11277278       3.54601660    -156.65259696
C        7.52862725       5.75730048       0.61826567    -155.51726678
C       11.20868079       7.22822535       3.86483245    -154.31847928
C        9.31824955       8.21767588       2.09711742    -156.18091127
C        9.11851449       6.52872043      10.08113159    -156.29580514
C        8.48069333       2.14789491      10.35434480    -157.24287932
C        6.55333946       6.39493217      10.56171779    -154.67391348
C        8.01385542       7.34558908      10.33709134    -156.92386881
C        5.43733598       8.38861176      10.04191166    -155.16315225
C        9.44799977       3.26602990       1.06886378    -155.43382999
C        9.53934714       5.72518561       0.02615431    -155.28367311
C        2.26047457       5.87162088       6.23016585    -156.30665593
C        1.10549155       2.03374029       1.80108513    -157.14811513
C       10.08833138       8.45998208       8.45345727    -156.36326388