200
Lattice="15.358753351315912 0.0 0.0 0.0 15.358753351315912 0.0 0.0 0.0 15.358753351315912" Properties=species:S:1:pos:R:3:gap17_energy:R:1 anneal_T=3400 density=1.1 run_id=366 time=0 pbc="T T T"
C        9.44726134       5.31842911       0.88277967    -152.94270018
C        9.44440461       5.14550491      12.47441019    -149.42238581
C        0.03960040      14.29285587      12.39419142    -148.77012371
C       15.33448652      13.88600249      15.03007603    -154.94929778
C        3.77160298      12.65740974      13.77082720    -153.65827231
C        0.11109263       5.77556705       5.36719315    -152.29666101
C       14.14023594       0.43260693       3.25534921    -155.11109438
C        6.86222956      12.52761291      13.27486234    -154.65689839
C        3.48066212       7.39757427      12.72581762    -153.28474555
C        0.08466497       2.54927660      10.49025892    -150.66213604
C        1.56960316       0.87842854       7.51362501    -157.54971324
C        5.77942209       1.98230822      14.59318093    -153.30834587
C        8.00484402       1.73781222       7.44486387    -156.26861389
C        4.02175100       9.15473852       2.20370465    -154.57770028
C       12.27115245      12.68090863      14.37149269    -154.46663295
C        6.74855943       1.17117713      11.50610223    -155.06657872
C        0.89985861       9.11439108       8.81004202    -150.28144873
C        6.81613794       4.43070853       2.39323166    -152.99231882
C       12.95604534      14.33639793      10.64257168    -154.22537593
C       15.09135746      14.97301826       9.81040370    -153.42138068
C       11.37300327       9.61957119       0.92367389    -146.75497200
C       11.49616511      10.07087280       2.11867859    -154.73699337
C        7.24007025       5.25601114       8.13241382    -156.15753475
C       12.04344357       7.62204245      12.60148851    -154.59925495
C        4.55052216      14.25682423      14.56054358    -154.09387953
C        2.41121676       7.27407453       7.06293775    -152.51453465
C        0.52872508       4.80458666       0.17464746    -155.63934835
C        1.38390969       4.91684379       4.08227985    -153.60406670
C        5.99336953       5.95557163       8.67854037    -154.21626603
C       13.27149877       9.28561046       3.33131360    -153.76491028
C        9.59467465       7.24231263       9.59776176    -152.47931627
C        7.05852979       0.34030697      13.75361004    -154.96894500
C        3.80420962       0.82383892      13.43886311    -154.86608081
C        2.87844540      14.70158301      13.49338668    -155.47372242
C       14.54844088      14.60615908      12.83792116    -152.20553961
C       12.25961802      13.24196389       1.93875079    -153.22759220
C        3.41409728      10.93371221       4.79237645    -152.56797086
C       11.92321525      14.13052920       8.65633162    -154.54135290
C        3.38608292       5.99610338       1.94662983    -154.63106257
C        5.81943164      11.90839405       0.92155592    -151.60326082
C       13.41333686       6.53066480       8.66229081    -152.93843552
C       10.97367568       7.47275537       9.23034967    -157.38284743
C        6.94873006       4.53296711       9.13945656    -155.21994300
C        5.53882722      14.52257674       2.54641987    -149.49671859
C        1.99130845       0.00014009       4.53496374    -155.79392270
C        6.05583358       5.39102994       1.58116830    -158.90431408
C        9.59914405       0.30268570       8.22851354    -149.94908417
C        3.10620035       5.60173667       0.27833133    -144.77023196
C        2.69318812       1.20544712       7.53541908    -151.46159337
C       14.85667570       6.40929993       4.87522157    -153.60846498
C       11.13056535      14.36269212       0.89986475    -155.13939345
C        8.96187866       0.98315834       5.03212659    -152.76601528
C        5.30260959       8.10461448      14.61726346    -154.20834633
C       10.25427168       4.02494562       5.73806097    -154.03618015
C        3.48479362       5.20144149      15.11648438    -144.51094502
C       14.26309060       4.73459682      14.62076525    -154.62390665
C        2.60035981      11.70114303       0.52894779    -152.17398973
C        5.81437861      12.35984925      11.94897188    -154.61634882
C        2.11686626       3.13372324      13.16440218    -152.39186074
C       15.33287385       8.91710789      10.75464450    -153.78205956
C        6.15973554       2.36934880       3.18841576    -151.21550013
C        6.66560680       4.59341916      11.50227790    -150.15618623
C       14.02538318       0.01252720      12.39148828    -152.25142713
C        4.97059942       6.99635756       6.74832905    -154.94743027
C       11.08213920       7.00349938       6.35474563    -156.98433358
C        0.57907108       1.12265576       8.80701635    -154.22339888
C        8.84654978       7.34831875       6.34362590    -152.33814753
C       11.08465803      12.87728565       5.82350171    -153.16912190
C       11.58994566       6.19685765       5.86182180    -151.91607361
C       12.33959105       5.30723258      14.03882209    -153.64532450
C       10.93773620       5.78538129       0.04564468    -155.26208073
C       12.49987500       7.03684323       3.97260299    -153.70587707
C        7.65248350       7.76773558      12.12627333    -151.46441552
C       15.13919997      14.65351011       0.87653941    -153.53951829
C        1.94824250      10.47221239       1.81540465    -152.20537983
C        8.91916596      10.97820651      13.65517579    -151.60321496
C        1.45189214       8.56711262       3.91136764    -154.05052406
C       14.72369962       1.14976242      13.53442527    -153.84400540
C        3.78356745       3.40838383      15.10570253    -153.23526563
C        5.92552991      11.53542209       8.27692433    -156.40033347
C       11.43322494       9.44385170      11.35190034    -151.95048887
C        1.49296144       2.18533558       5.42729195    -152.89946364
C        4.44368667       7.15826953      13.92880734    -155.84074202
C        1.35692282      13.60533663       9.62119922    -153.43493610
C       10.85593548       0.21109224       1.02128952    -155.81242001
C        4.92387810       4.10117111       9.49445879    -154.81577185
C        3.57458090       3.82194898       9.15254222    -155.43689889
C        1.94850360      14.72520478       7.31366940    -152.40331093
C       10.49425220      14.38749651       3.13561237    -151.57446514
C        8.19879436       2.36354319      14.33569143    -153.16718458
C       11.46767462      12.09124001      14.81548353    -152.96630383
C        2.63202956       4.81868599       4.71658100    -156.68815223
C        9.41964630       9.49261574       5.57574966    -154.63412188
C        0.35981105       4.18690367       1.52177139    -155.28977765
C        1.32230880       2.16567638       4.35787732    -152.23522187
C        0.44476339      10.68106071      15.04654061    -153.28771413
C       10.53650413       7.33713757       0.54431883    -153.66046503
C        2.23016778      15.05096393      11.01936797    -152.21662446
C       11.37988399       4.35671005       5.55361770    -155.30020280
C        8.27577243      11.12790828       6.61481540    -152.60706651
C        0.37463993       3.14875946       5.77615068    -152.72402024
C       13.07687265       7.38239982       5.02478511    -156.05837832
C        4.81407837       4.42273733       3.10795125    -153.66467426
C       10.24216898      10.93985571       1.45778222    -155.03375087
C       14.21016434      10.81139509      12.94957930    -151.69665818
C        6.47098068      12.92422200       8.62467723    -153.27786123
C       13.97161218      14.10896551      11.56276067    -156.66256071
C       11.08375187      14.20071871      10.49701677    -153.06737937
C        5.82807862       7.66495481       5.01192983    -151.42726516
C       14.43283555       8.41960715       4.62855999    -154.54607274
C       12.48751121      11.84585321       4.59993127    -151.40706880
C        1.40960334       3.08583465       0.65411087    -152.45406208
C        2.64741903      14.62769205      14.84117872    -154.44513657
C        9.99910135      12.19357538       9.24864194    -149.21494472
C       12.00443234       3.57955713      13.18191116    -153.91697140
C        6.32866647      15.12746588       6.36861459    -155.10796649
C       10.72077845       1.74774934      10.91133450    -152.56943489
C        9.27097357       1.06700792       0.92147145    -153.05327258
C        5.20979665       6.53637825       3.18772462    -153.42725604
C        4.49159062      10.73073092      14.56098898    -153.09657180
C       15.17693643       0.76150542       6.72080616    -153.42362168
C        1.93744530      11.93471896      12.23154222    -151.71180188
C        6.52679439       0.12805560       0.68638422    -151.92953859
C       11.94868006      13.14718502       9.24773577    -154.77917986
C        6.17234508      13.37252865      12.96287998    -155.00314985
C        6.70580066      13.06007017       6.15134966    -152.53039845
C       15.28132988       9.37086690       1.82091844    -156.02449273
C        6.20896035       8.98789638       9.10178154    -153.38602115
C        8.95051318      10.58279541       0.78150405    -153.71990142
C       11.26953135      14.89195476       5.18055358    -152.99520619
C       14.21600067       8.95227944      11.99509421    -152.48454678
C        5.48649995      12.24384458       4.89574086    -152.36445094
C       14.46716236       8.26241031       2.23245623    -154.26846782
C        1.73255953       6.30913014       8.80408282    -154.61749815
C        3.70549891      14.00733664       4.32949434    -153.13558878
C        8.12817481      14.22516984      13.23032195    -153.92273603
C        2.22715746       8.74318537       5.29946105    -154.03853607
C        8.35219758       1.38961546       6.06423481    -159.05357047
C       13.61263204      14.38063114       5.94276243    -151.09477190
C        2.88481928       5.79611706       4.14048952    -152.69780608
C       11.29954235       2.92581180       9.46464745    -151.39395847
C        2.05179122      12.10096210       5.06812751    -155.80200647
C        6.70116232       6.35813992      14.38236668    -153.39729266
C        5.14249459      15.28206710       7.11600224    -154.41209780
C        1.30097395       0.34878807       3.36083313    -154.99177265
C       14.35435232      13.53765061      14.80362657    -152.72948864
C        1.84195993      12.43183573       3.68897289    -153.72016699
C        6.48732239      10.92749191       7.13272793    -154.42188145
C       14.79362802       6.06492596      14.88690173    -155.46737669
C       11.79220508       0.30574363      12.40692383    -153.25937858
C       10.63498445       3.75914704      11.89973172    -153.55106361
C       10.97902053       4.91707417       7.74025877    -153.21943013
C        5.99742424       3.66570438       5.83262481    -151.77650665
C        1.63980802       3.28138229       5.55731916    -155.11678084
C        9.17664010       3.52111708       2.14156313    -150.54151699
C        1.65415309       0.39703453       9.12681631    -154.67760344
C       11.77031886       8.97630053       0.86342150    -143.05804605
C       10.70670983       1.21812423      14.67318468    -154.17793932
C        4.79994831       1.02885678       5.05848221    -151.29069934
C        8.51301909       9.40430291       4.41260056    -156.61299311
C        8.32508938       0.85069985      14.01853318    -155.18521934
C        3.86441593      10.56195358      11.68490883    -150.38279362
C        3.72308468       1.99259858      14.04657826    -155.59766372
C       10.50457328       8.24924786       5.82503759    -154.79952950
C        9.02050302      10.47786441       3.43920884    -152.64129187
C       10.52421712       4.93929828      12.27992230    -155.81322082
C        9.68506092       4.36174772      12.94131629    -151.38194622
C        8.61097722      11.89165301      13.95284379    -152.87201105
C        9.21230313      13.44770975      11.63129142    -151.83018938
C       13.54511496      10.29070264       8.67594475    -150.37867608
C       13.57845882       6.49283619       6.61736496    -155.23953505
C        4.15939615       8.18805859       3.01701207    -156.18839207
C       13.25724585       1.79278120       3.89396617    -152.80823030
C       14.52423549       7.83809403       6.66072272    -153.89996490
C       15.04841438       7.58965084      13.66188756    -152.35721346
C        1.16796869      14.08976707       5.58349048    -153.89964478
C        5.48788224       6.19484565       0.44096670    -154.27802949
C        0.20702524       1.45114570      15.15199381    -153.62066218
C       12.70666526       8.35771138      13.84110886    -154.28779268
C       10.54598048      13.71189566       6.06385085    -155.12066135
C       15.04339207       9.77068597       0.33261838    -156.52012222
C        7.19465442       7.16700866       9.89177438    -152.46921306
C        7.54514117       8.12630104       3.16542371    -151.06552247
C        7.78181956       9.56815009       9.89266519    -152.55103098
C        8.15548267       3.16809613       6.04720196    -152.56134092
C        3.15481081       4.36426656       6.36866066    -154.06343090
C        6.53877422       1.87737722      12.54699566    -155.37905363
C        6.68408338       4.28449319       0.52757779    -152.74635705
C       11.58980743       7.49610067       7.40766497    -152.80283947
C        3.31658456       9.26214228       3.39108987    -155.45878280
C        4.63883499       8.39299043       6.77133646    -153.90595967
C       11.42589882       8.04692700       2.67151692    -154.13998379
C        2.26380345      12.48746513      13.02578943    -155.06105597
C       14.78407488       1.22189327       2.74024734    -154.08911791
C        0.69783264       5.06305912       8.50312805    -153.43722830
C       15.33897128       3.13879163      13.66331593    -152.35640892
C        5.07721989       6.46297877       1.73048610    -157.31594719
C        6.74995708       1.76757749       7.21302349    -153.51464393
C       12.25648484       0.68097333      14.39907701    -154.08615604
C       10.93394259       8.71578535       9.45455675    -154.29575786
200
Lattice="15.358753351315912 0.0 0.0 0.0 15.358753351315912 0.0 0.0 0.0 15.358753351315912" Properties=species:S:1:pos:R:3:gap17_energy:R:1 anneal_T=3400 density=1.1 run_id=366 time=1 pbc="T T T"
C        1.21766654       8.38059592      -0.00868831    -154.49416052
C        7.97552416       7.38734534       5.48855802    -155.25141893
C       11.48026880      12.98134120      12.17746405    -154.90334767
C        6.44258234       1.44084151      15.40329374    -157.17691814
C        3.92425363      10.36952376       6.38133164    -156.91124266
C       14.89385925       4.59649091       4.99099585    -155.41804787
C       15.09813067       3.77946667      13.10843489    -155.92753171
C       15.16615458       5.11616969       8.24499349    -151.65545456
C        5.43841169      13.15478760       9.59756210    -156.44723732
C        2.90274295       4.15283796      13.55073627    -155.73820343
C        7.86586266      13.10408836       8.81776747    -153.21544957
C       12.17205777       1.59760216       6.56795585    -155.53702266
C        7.75265329      11.34996514       9.50805128    -156.20853351
C        0.53997691       9.62642120       0.89261696    -155.30359345
C        2.50687108       9.16782418       5.21248443    -155.66419745
C        1.82987259      10.17761614       0.46868772    -154.75271302
C        5.67398425       7.35472335       4.16732126    -158.22455850
C       11.98346764      11.11807868       6.71154483    -156.52108391
C       12.85567588       7.25042205       5.35370817    -156.42164490
C        0.68857131       5.55406310      12.58072348    -154.83360624
C        6.90782970      11.64698807       5.79154015    -157.56184603
C        6.82962293      12.54438467       3.85501637    -157.42758121
C       15.19466043      14.07995283       1.22846682    -153.53337368
C        4.75591477       8.98350378       6.74714642    -156.28079037
C        3.25481165       0.29677873       6.63215544    -155.54128219
C        6.51665761       1.74202052      14.02433878    -156.22195774
C        9.72221374       8.82925582       0.20419923    -155.05784205
C        3.00068572       2.64569885      11.37303399    -155.54218025
C        3.79207620      15.00336716      10.44296932    -157.79800388
C        1.18582477       8.25824809       9.17344548    -155.38304853
C       14.11291271       2.69516940      11.75807793    -154.80278247
C        5.47834445       1.75644239      11.73619171    -155.64039480
C        1.63982338       6.40417010       3.75424759    -154.44543209
C       12.47278216      15.22336594      15.05713815    -157.69854180
C        5.57809955       7.33896527       8.80359134    -151.85619391
C       15.06372706       1.56284531      10.02550304    -154.94335422
C        3.97902295       7.49173879       7.07740570    -155.68233671
C       12.93486561       0.57370166       8.03824931    -156.69463949
C        1.62911833       4.60036132       8.16855297    -155.33066169
C        9.41310347      12.10320448      10.36551513    -154.70812649
C        7.48972679      12.99808224       2.62846633    -153.91417178
C        2.09493396       3.93105756       4.96218283    -154.96877874
C       14.39760257      14.41374462       2.49711827    -157.15623330
C       15.40974441       2.95712829      14.11510902    -154.93937683
C       15.33814190      14.17924717      11.46512507    -155.68494707
C       12.20408077       7.07725211       7.60934076    -154.48365476
C        6.21514992      10.85040633       6.71856378    -156.09830113
C       15.43769734       6.47079637      10.55362914    -153.90594723
C        3.91718861      11.16721133       3.60939919    -156.12803141
C        8.76292137       3.11841056      -0.06394141    -153.70791740
C       13.98541970       1.09545848       8.28558667    -154.15908969
C        9.88500117      12.26889471      13.81148182    -156.02649238
C        4.12195151      13.06547645       4.04231637    -155.92223499
C       14.76913081      10.90975255      14.54076151    -154.79627440
C        2.77816810       8.72386406       8.85094238    -157.81875607
C        2.41152394       5.17594596      10.33937453    -154.47369345
C        5.42337547      13.87929072       5.55117566    -155.09581794
C        8.67081492       9.77360413       0.54996470    -157.16476551
C        1.81494388       0.86673899       6.44915589    -154.94302778
C        3.37697518       6.38683007       6.34259686    -154.18028266
C        9.08176909       6.62243335       5.55999158    -156.79817268
C        5.02630562      11.86694078       1.03836538    -155.17180091
C        9.28304555      12.06219661       3.07807848    -153.72114069
C        0.42683972       7.70187725      10.07867505    -157.36115324
C        4.32671441      13.79277486      10.49417540    -155.90840511
C       10.86885219       4.41574910       6.85952642    -155.31573063
C        0.62390174       4.57274628       7.31297826    -158.33915987
C        6.15667915       1.92101143      12.92148814    -156.48593533
C        7.07136971      10.43016012      10.35167689    -155.04766120
C        2.71648735       0.30828550      10.09748952    -154.04422569
C        6.96439599       6.99853850       2.12429989    -155.00516442
C        9.01766165      12.52163836       1.51321503    -154.83254569
C       10.45749870       7.15200316      12.39505151    -154.85453048
C        5.63168624       0.64789519       0.63455765    -156.67925954
C       10.79941527       5.56691838       7.64816769    -156.45385150
C        2.87517399      10.33249381       5.53037991    -157.44172883
C        5.81758859       1.69278036       8.11983500    -158.30943510
C        8.89700328       5.37812858       1.38332145    -155.27355043
C        0.14958412       0.55500238       5.08815532    -153.56410141
C        5.63028860       6.47454391       3.09621716    -156.46518888
C        3.85859496       8.04093709       0.15217192    -156.14360947
C        3.75159053       2.31582355       6.01608512    -154.25982353
C        4.03363868       1.46503769      11.08918887    -156.27653538
C       14.15005018       2.59777954      10.22433746    -155.51049686
C       10.49864480       6.19089845       5.34010031    -156.44332980
C        2.59232718      14.65265002       1.53435943    -154.56746104
C       14.44705775      14.95237610       7.00449769    -152.68821225
C        2.30946502      12.89864967       4.40849977    -154.34336443
C        3.12435440       3.69594577      12.08689348    -156.53001502
C        7.62775591      13.35690880      12.74258938    -156.96656137
C       12.27726523       1.93961088       4.36635535    -156.36829349
C        6.57812334      14.90075533       8.90148804    -155.24076616
C        8.41518383       4.09008209       0.53835656    -157.19135052
C        7.52772435      10.77178487      15.22737458    -157.40298503
C        3.48569979      15.48162338       2.38719567    -154.29624338
C        2.46217711       5.21489575       7.59462707    -154.62728484
C        0.88662090       4.81309541      11.38266392    -155.26683360
C        1.13883620       1.24545974      11.88636960    -152.74716532
C       12.30930359      12.50540415       6.18109957    -157.04965163
C       11.51250683       2.37891731       5.27381193    -158.20595916
C        4.73479648       0.42473404      -0.07083380    -152.90481318
C       12.71660237       7.90883645       6.66021588    -156.23034999
C        5.18208946      10.02482726      -0.00286805    -156.12492996
C        3.93893660      12.31429519       2.87701704    -155.20593673
C        7.87426390      12.09770605       4.75373383    -154.11887223
C        4.64285899      14.31374377       6.86654537    -155.00429757
C       11.87623282       6.27185444       5.13876241    -156.66294761
C        9.78358732       9.73781823      13.53560789    -155.65800635
C       14.06199845       7.16699331      13.69613758    -154.25507334
C        3.31965631       4.29244903       5.64494085    -156.17054778
C       14.66481416      11.09932564      12.63732049    -155.58890244
C        0.64813939       4.51568851       5.92188989    -157.37436398
C        6.27919593      10.69611229       0.36023342    -156.53021385
C       12.76596540      13.19714705      11.31867936    -156.38639259
C        6.29659739       6.89326960       5.69262978    -155.46174470
C       12.07333170       9.47949936      14.27468646    -155.38183805
C        4.97049191      14.30531182       4.75903260    -151.72528200
C       13.50247906      13.70996046       1.45542158    -157.89746616
C        9.99003968       8.68723343      14.26490294    -157.71615618
C        7.07319740       0.78548197       8.22981904    -155.00855661
C        7.02824233       2.99472652       0.34259389    -154.42614076
C        3.17600589       6.75886515       0.17830591    -156.65911121
C        6.04452953       9.53414581       6.87221275    -156.20408131
C        5.90141667       2.46100984       6.99651114    -153.25540867
C        6.78810822      12.42245153       9.22858341    -157.95437358
C       10.11492171      12.04035646       2.00485487    -155.04854095
C       13.21163035      13.31313635       5.93721792    -153.55551924
C       10.32932990       9.34044121       8.25835560    -156.83653389
C       11.47303483      15.22531650       8.34382706    -152.42562770
C        9.68544489       9.41531513       9.39029572    -155.33440198
C        8.09146739       9.97486523      11.33832320    -156.48023943
C        7.11113352      12.24918943      13.30855944    -155.74533583
C       14.32913324      11.91441468       0.25583536    -155.16309541
C        2.59380162       2.19468906       6.48334448    -156.36597898
C       11.60020531       3.70938467       5.59533207    -156.62115107
C        3.77175657      12.58305801       0.58497191    -155.05177938
C        5.83856865      12.56862078       5.13787161    -156.79207077
C        9.39041859       9.02915000      12.28027555    -154.20895919
C       13.38648976       8.75749973      14.18425412    -156.20102857
C        0.26207255       0.64792130       3.59748080    -155.92372334
C        5.60668219       8.74902169       4.11226013    -155.67620966
C       12.32046940      10.41930148       7.73678770    -155.18448809
C        5.23074599      13.20499537       8.09837883    -154.02853013
C        9.10864690      10.90062945       0.99466819    -155.53525849
C        3.20116353       7.14585966      12.80900063    -156.18353621
C       10.18761469      11.56736829      14.86318782    -154.48765939
C        4.90908762      15.00944922       1.24751167    -156.49834722
C        8.52521394       9.90280196      13.39117418    -155.70105588
C        7.08127610       2.51132512       5.12923999    -154.13155586
C       13.05752062       1.09199815       5.60196706    -154.23580315
C       14.52560242      12.58232079       1.61567942    -155.03748837
C       11.70810055       7.13982367      12.34702469    -157.22506687
C       15.31263102      10.06952123      12.46502599    -154.12996328
C       13.73643895       4.96533137       4.04924317    -156.58638010
C       11.24947282       8.27635606      14.61701772    -154.91947636
C       12.33507558       9.15736487      11.64162787    -157.64756226
C        8.06277724      11.10064650      14.02416984    -156.54424410
C       11.16974553      12.75125172      13.63456434    -156.87518635
C       10.41722805       6.69744550       6.90703105    -155.75817968
C        2.90512356      12.13032804       5.41233253    -156.09852575
C        7.62454593      12.89394990      11.62353525    -152.73751241
C       15.64457975      15.02007748       2.70016099    -156.22284698
C       12.26892543       3.88375260       4.39782543    -156.50759446
C        2.89885718       8.06081132       5.84746137    -154.91119069
C       11.12621882       9.90851542      11.90601345    -154.47811208
C       12.24049638       0.39760434       1.08589151    -154.75125810
C        3.55797808      11.53167455       9.13045633    -154.55878815
C       15.03803186       8.70623221      14.18013798    -154.59660404
C       13.03125715       7.75544858      12.37637527    -156.47237620
C       12.86206512       8.48905943      10.56416524    -153.87079048
C        9.15612081      10.08037987      10.70584974    -155.62570931
C        2.12746380       6.97152245      12.17766372    -154.52651018
C        0.34439547       1.91956771      11.31282767    -158.58777687
C       11.37286504       8.93649064       7.60161531    -155.86468577
C       12.79445589      14.89769893       2.20904949    -155.16619615
C        3.29657210       7.46940716       8.59581813    -155.44078075
C       13.76234917      13.76657283      11.83135455    -155.95491430
C       12.89628443      13.84004910       0.04444224    -155.05054955
C        7.11738453       3.87596571       5.87925399    -156.48323438
C        2.94674578       9.95004549       9.22778475    -154.57466521
C        4.36577172       6.25800085       3.50247155    -156.19180186
C        2.09438104       6.28753573      14.99940460    -153.96082992
C        8.21499784       6.35803241       1.29216110    -155.66580540
C        3.21957867      10.25970867       4.09748501    -156.43523091
C       13.14042717       6.30439964       4.35371509    -156.49202315
C        6.44631452       5.10216250       6.05867495    -156.26353512
C        2.24423640       5.77966783       9.20451624    -156.30451828
C        4.65720406       4.83963533       6.20109667    -154.96631700
C       11.66062664      14.58170794      14.37537845    -153.23376086
C        4.49423233       9.32073593       3.83348340    -156.01006912
C        5.03499868       0.56796209       8.33209298    -156.69940349
C        3.73354399       0.52745184       8.25792556    -155.08926900
C        4.62872893       9.07216986       0.34326507    -156.46324808
C        3.56401407      11.54600427       7.22721498    -154.02934708
C        3.35270835       5.39729631      13.20633158    -154.76307366
C       11.90762611       2.86090570       3.26646895    -153.22577674
C        2.97515947       6.57027502       3.94048784    -156.53047965
C        3.73604747      14.26223051       0.94871173    -157.75144153
C       -0.07696809      13.61745469      10.02263096    -154.18594104
C        3.40532743       6.11467296       7.64806018    -156.46762713
200
Lattice="15.358753351315912 0.0 0.0 0.0 15.358753351315912 0.0 0.0 0.0 15.358753351315912" Properties=species:S:1:pos:R:3:gap17_energy:R:1 anneal_T=3400 density=1.1 run_id=366 time=2 pbc="T T T"
C       14.02936110       0.52275053      15.13287217    -155.81553738
C        7.19923133       6.77147469       9.16853068    -152.13665499
C        4.97752622       8.05843071      14.45439924    -156.48057473
C        7.27313765       4.69126978       0.69666998    -156.59171644
C       10.76238531       3.15187729      12.16178276    -156.29956309
C        3.33214297      10.93426512       8.06587970    -156.19083658
C       10.59471380       4.21682253       9.58151220    -154.55189289
C        0.87053107       2.97729434       7.94704903    -157.01714696
C        4.24849228       2.44941398       5.91611500    -154.43434329
C        2.71103499      14.03069731      14.86731932    -157.07651631
C       11.07000578      13.77288527       1.11974527    -154.84782026
C       12.13227860      11.78096248      10.33676354    -155.63688855
C        6.40619746      10.48052147       5.50003101    -155.09845589
C        5.03132793       6.86097014      13.83238508    -156.23384885