200
Lattice="10.87342332846187 0.0 0.0 0.0 10.87342332846187 0.0 0.0 0.0 10.87342332846187" Properties=species:S:1:pos:R:3:gap17_energy:R:1 anneal_T=3400 density=3.1 run_id=386 time=0 pbc="T T T"
C        2.63301033       0.90131437       5.03971211    -153.63084302
C        2.31873578       0.94910741       7.41811036    -153.87718935
C        3.78002601       6.90162275       7.96504355    -154.56278942
C        0.35369180       9.18110547       8.20531359    -154.01931474
C        6.22601346       3.50785335       5.64523130    -153.54447872
C        2.76301298       5.76551311       2.15797221    -150.74245297
C        9.08819207       0.91186159      10.40049465    -153.97306192
C       10.81617475       4.08182875       6.01500381    -154.50297912
C        3.37039154       7.36271026       9.28107572    -155.06159677
C        7.86795475       3.64958843       1.38605702    -153.24218516
C        6.70977207       8.65083036       5.21233857    -151.49484581
C        5.28938765       0.22996312       0.92713223    -152.05635860
C        7.39986475       5.54630490       4.03769353    -155.49226849
C        5.93741106      10.18183011       6.49597882    -153.69527182
C        1.99022791      10.37234336       0.36725748    -154.04215949
C        0.18887028       2.51412032      10.61810448    -151.93241660
C       10.74825935      10.70614658       1.22249898    -154.23516890
C        4.01124936       2.77363632       2.85766613    -154.14550976
C        2.94465352       3.31786203       8.46366612    -152.69360821
C       10.48261075       9.69442891       3.49513145    -155.52323366
C        5.92111180       1.25888146       9.84940781    -154.13133199
C        8.54162857       7.95744303       6.04419895    -152.85637694
C        1.83606452       8.61147944       4.69924347    -154.16036059
C        4.52446407       2.96263816       6.97172371    -154.65502342
C        7.30735367       0.42169854       6.21236732    -154.71229686
C        1.99530580       3.15656567       6.16207773    -146.12870604
C        2.84043176       6.73234529       4.12673599    -144.93179969
C        6.27524832       5.04300675       2.88789425    -154.60658337
C        3.83520864       6.68515464       5.59340857    -152.85314621
C        8.14691243       2.78520564       5.89909312    -151.91994978
C        2.32105182       6.99550389       9.82687808    -153.81978483
C        4.96508780       8.40808118       4.68100874    -153.87070114
C        4.45103584       7.03357174       6.77507785    -156.47036850
C        5.09933109       6.79550901       8.72829263    -155.19082394
C        6.99466663       9.88281097       8.34138361    -154.11492075
C        2.91111988      10.41322743       9.64220386    -154.24052080
C        1.44629578       0.18961293       1.68685940    -153.52020594
C        3.60065802       7.53323816       3.63011413    -154.19030557
C        0.27474096       7.62378116       1.11467812    -152.71849809
C        2.58365586       8.38594289       7.31258378    -115.67931682
C        6.88027822       6.59294801       5.56432216    -150.31370572
C        6.95816455       7.13778263       2.91355553    -154.21251775
C        3.14324572       4.08960325       0.55061928    -154.17279579
C        8.66585743       9.80887169       7.69888389    -154.84344693
C        5.08738119       4.82410299       1.70560518    -155.88962626
C        8.08892446       9.60320089       0.05448520    -155.82343809
C        6.81005765       0.06741631      10.40325650    -153.65848804
C        2.82271895       3.21846806       6.05413726    -147.82787186
C        2.71468062       2.35478118       9.24773781    -154.96712679
C        9.65320776       3.81771330       2.78247641    -154.67765662
C        2.07284418       6.66930119       3.94056123    -143.63576724
C        5.82302265       6.62654689      10.69505569    -153.11183882
C        7.25942362       9.43830542       4.48321030    -152.93387815
C        4.80839090       9.97804041       5.41393184    -153.08745734
C        2.44338870       4.15279958       9.27418197    -153.85924988
C        0.60331842       7.68134506       7.58341901    -151.68699232
C        0.64816042       9.51475646       0.37546366    -155.63027177
C        5.40140566       0.75906716       5.44891165    -153.95466514
C        7.34437767       9.23828880       2.47204017    -153.01794086
C        0.77327546       2.72091109       2.51856755    -151.99218992
C       10.10677087       2.95235190       8.83433025    -153.88680404
C        1.32493751       9.05043954       9.77730614    -153.85084438
C        1.06725586       1.64525768       2.79462202    -155.93354002
C        7.30018808      10.54654648       1.32408938    -150.79709120
C        0.29717066       6.62601409      10.61464673    -151.58430540
C        0.99707552       2.61019789       8.54885940    -154.07996848
C        6.92862146       8.50571365       9.95822903    -151.36216418
C        5.82737202       0.93617239       8.11670606    -155.13602063
C        5.62313651      10.11969937       7.66888412    -155.84878490
C        8.81296397       0.17342023       2.53534524    -155.37995634
C        4.76471236       8.25654916       9.16285986    -155.21845306
C        1.20014323       3.70789172       5.46513479    -155.83748868
C        2.94046725       8.03712347       5.65869260    -155.44864625
C        9.21566121       8.19377688       7.79766894    -154.63154799
C        6.52249910       1.42106944       0.80758437    -149.20876351
C        5.75362846       6.14787704       6.28627398    -152.50349679
C        2.48083677       7.37674785       2.81195426    -154.64368106
C        1.23905921       6.97778021       0.90840928    -154.88122867
C        3.73146530      10.83111484       3.17547455    -153.58710588
C        7.36129672       0.95763327       8.60173685    -154.97142073
C        1.68654407       7.64176580       0.01829421    -154.31981070
C        5.85654541       7.55667039       5.27698108    -154.33838051
C        1.14342745       6.92920862       8.22855009    -151.81848179
C        1.29572062       8.46548199       1.63478658    -153.46122118
C        4.35942725       9.77950257       7.23237054    -152.73016999
C        9.93561231       0.09960926       2.79632915    -154.82397258
C        8.45332550       1.45109096       4.11775454    -154.72088353
C        6.23308119       4.55260449       8.33465296    -155.79309922
C       10.04701054       5.45184747       8.04120101    -153.08453755
C        4.32555653       2.65912830       9.90653678    -153.84656687
C        8.81013688       2.81624926      10.68099636    -153.92835211
C       10.25675887       2.98146006       5.30438210    -155.06816662
C        8.97951220       2.88932954       2.62122354    -154.92677582
C        7.86934655       5.23541198       7.88971247    -154.29222302
C        8.10957309       9.09761932       6.42097394    -154.74869507
C        4.36009053       5.12601447       4.48562420    -154.47590319
C        6.60347348       7.08867825       7.18597364    -149.80925939
C        2.96962977       5.48873012      10.56639047    -152.98855105
C        3.91969514       8.96599653       3.16581895    -153.81562426
C        6.81003590      10.69064108       2.44206215    -148.89622014
C       10.11216409       1.23021912       9.80066226    -157.59941090
C        6.43361974       2.74213601       1.67452894    -153.26331654
C        4.16622826       3.02608459       5.01209361    -154.75798222
C        7.43210445       2.26441215       0.58167922    -152.16363598
C        9.95012833       8.39308673       5.24375189    -152.88062928
C        8.32357294       6.95907792       8.80155775    -153.42797829
C        8.30495764      10.84536990       3.64722889    -154.49131960
C        5.73192511       7.56719586       6.67976142    -152.98117475
C        4.27427747       0.32099216       9.52557552    -154.59483658
C        9.96124097       4.61398496       0.40471208    -153.74630666
C        9.23991982       7.92295253       9.60798519    -155.01937035
C        8.18029384       2.85196846       9.03927253    -153.59423886
C        5.76563272       0.24604382       2.20838140    -152.07817805
C        8.39721863       5.57137901       1.22208579    -155.56135924
C        7.35414201       4.54249220       1.87171847    -154.13343107
C        1.42628868       9.94855169       8.54146547    -153.92344436
C        3.25391542       6.36688954       1.43311719    -153.04219269
C        4.30686512       8.43692838      10.69728474    -152.09326607
C        0.21247104       1.12682373       5.76884038    -153.78499969
C        3.54283316       0.79427965       8.81656308    -153.38992906
C        3.28894959       8.79924171       0.20834893    -152.65516660
C        3.81962702       0.01781197       6.84679895    -150.93068885
C        6.09823987       6.85169199       1.74286841    -154.10600138
C        9.40634843       8.98462271       4.12610533    -155.27937408
C        4.69464402       2.12117655       6.20771349    -154.00941446
C        8.07272306       7.58046144       2.66098765    -154.84934856
C        4.82787607       6.24423732       2.33205572    -154.25457465
C        1.52921651      10.28450785       3.45195308    -151.74913881
C       10.23332664       4.58168002       4.31712963    -155.33725445
C        2.67625394       8.21640448       7.70380955    -117.51364062
C        4.76462537       0.00487963       6.25577402    -154.22773647
C        6.06809874      10.43232116       4.55290894    -154.14478774
C        5.75363933       6.22440420       7.39501521    -151.42229702
C        6.38217757       9.90019757       2.88768765    -149.19093228
C        1.19273843       0.74060844       3.44449392    -151.64015890
C        7.76584243       8.70990567       3.77628555    -153.81778585
C        6.35512449       3.66465899       2.40501639    -154.40153043
C        4.95654129       4.36729961       5.95517824    -153.84022679
C        7.69455627       8.89400360       1.43733608    -152.26240755
C        8.61214272       0.03649469       7.91027412    -154.63722558
C        1.77891380       5.53824769       5.37304777    -154.45258991
C        7.88691800       8.77559202       9.52826126    -153.74102614
C        0.15499847       3.35506001       4.02989728    -155.47165538
C        7.25445446       8.39847995       0.54128445    -152.32306590
C        9.49769606       8.36850192       6.21615127    -152.49602498
C        9.63625610       1.04833936       6.77388177    -155.35992725
C        7.63255601       2.46476585       1.89425908    -153.64310930
C        9.29935395       3.80275147       9.04402422    -156.43489209
C        2.21440528       3.27781521      10.71355139    -156.27498087
C        3.44346094       9.32367780       7.44410871    -152.99893144
C        8.74247157       4.71107376       9.75516785    -153.78255685
C        2.95110146      10.59357403       4.38641508    -156.35003528
C       10.22108317       3.23169015      10.25474729    -157.48919302
C        5.13350625       0.91284129       2.57482664    -148.74305962
C        1.71559786       8.16223308       9.02509359    -154.99962109
C        3.62652590       7.65191071       0.08168888    -153.40282861
C        1.58352926       4.36740834       9.83571817    -149.73764011
C        4.25002974       5.75698835       9.51669193    -154.10903776
C        5.17389015      10.14007617       8.82901315    -153.76307204
C        7.84545764       5.10269097       5.79944907    -154.10676724
C        1.00128571      10.86340891       2.62035367    -152.17356954
C        9.89550025       0.30029242       5.26390035    -155.84954760
C        8.55711232      10.13981520       5.72363956    -154.11243309
C        0.68356863       5.54333645       4.77628168    -153.40034643
C        9.06641260       6.95502213       6.64690193    -150.97941597
C        8.06291523       6.71046797       1.38628536    -154.37643287
C        2.89402686       9.65325126       8.53924729    -154.71968840
C       10.34107140       9.22394676       6.31409907    -152.88306871
C       10.67989814       9.65216391       4.88258026    -155.04117303
C        2.65598588       7.46776928       1.18135395    -155.82593776
C        3.11203900       1.44421896      10.39460126    -155.23734708
C        5.81553086       4.48518926       6.60602874    -153.80025505
C        5.02092283       3.48796586       1.43241042    -154.61935407
C        9.42222363       3.35030832       7.04175943    -152.32471009
C        6.28344689       9.60783297       1.06356433    -154.38985230
C        3.26087442       4.64151647       9.88216944    -154.15290212
C        4.41220684       8.29616104       6.00306479    -154.71524999
C        9.26178627       9.22942696      10.43412615    -153.41626016
C        7.90605523       4.76820272       0.29528086    -154.44070084
C        1.22856636       4.38630635       4.62346659    -153.74791973
C        2.15755902      10.68641132       5.46082892    -153.67913673
C        9.15006184       3.24567337       5.77193931    -156.02862125
C        8.35868322       7.29305512       4.22311801    -152.48492817
C        8.87003857       1.57570039       1.61598643    -154.09017839
C        8.31601591       2.63248841       4.69778644    -154.99469349
C        6.91798725       0.71287251       1.30817069    -148.33228994
C        4.29562200       0.37051407       4.07003109    -154.12589691
C        3.12637017       2.52546130       7.71182327    -153.43180461
C        5.38971673       6.45550794       1.01517325    -155.44453283
C        8.84048461       5.16277751       3.54751960    -154.93569031
C        2.29168270       1.42815891       2.51873065    -152.35778340
C       10.72492499       8.16698477       8.07966031    -153.00820130
C        7.05705834       7.62559702       5.55139366    -150.21469547
C        2.45033682       4.74191079       6.69775693    -153.85402694
C        6.64298750       9.63641920      10.52556077    -154.96887232
C        3.32273332       2.14789255       0.49582484    -153.22453070
C        3.24784805       4.06454001       4.08841804    -155.59388142
C       10.05863422       0.99210093       8.33622960    -155.23487196
C        6.54339782       0.62339837       5.08692451    -154.56040294
C        6.33553058       3.86910110       9.16536075    -152.26074707
200
Lattice="10.87342332846187 0.0 0.0 0.0 10.87342332846187 0.0 0.0 0.0 10.87342332846187" Properties=species:S:1:pos:R:3:gap17_energy:R:1 anneal_T=3400 density=3.1 run_id=386 time=1 pbc="T T T"
C        5.15866736       4.07535906       8.89946206    -156.44578553
C        0.64230181       2.52537431       1.43885836    -155.35968613
C        5.02814278      10.56771703       4.68676078    -153.82046830
C        8.43621073       7.86613889       4.16391222    -154.31923314
C        9.70348647       1.52492151       2.10631258    -154.55730871
C        8.53949738      10.07372654       8.39949118    -155.63933155
C        7.92647552       5.20150864       1.30966035    -153.41656023
C        3.74667722       1.00636469       1.90502377    -156.43030772
C       -0.10894409       9.14870267       3.67401014    -155.29451067
C        8.24232672       9.34236921       2.72443408    -156.25339578
C        1.27970406       8.72024629       4.79073246    -156.66431681
C        6.55604361       8.62473414       2.65294132    -155.43571853
C        5.35346474       7.16580344       7.13168264    -157.34024390
C        0.34510615       6.18598839      10.34372451    -155.30118815
C        2.99391013       2.38620537       4.74054074    -157.43143174
C        2.07095221       5.92478702       7.79294988    -155.67191312
C        6.04409022       6.67542292       0.61392109    -156.93273727
C        4.45655954      10.05570927      10.39641712    -153.46191463
C        9.79643249       5.63807659       1.89466139    -154.96063311
C        3.78128733       8.53644195       6.04980964    -155.22217333
C        6.03795761      -0.20855117       2.27748201    -155.43893736
C        7.37261595       2.57260847       3.68140406    -156.12832187
C        0.63371072       5.40728818       9.07221901    -156.27338214
C        2.13545335       8.77582036       0.00271801    -157.35167523
C       10.39002355       3.14246284       4.78452373    -156.71565861
C        8.81230070       3.99896239       6.43892597    -157.64562186
C        7.42981016       9.30671525       0.09767313    -156.89887854
C        5.75311741       1.28832669       5.22755049    -153.96048164
C       10.26987222       4.59625041       2.90832541    -157.75403664
C        1.45087349       8.62937710       2.03143819    -154.51316663
C        0.77767594       3.53040483       5.48435901    -154.91817906
C        5.97687071       7.58512614      10.04960928    -156.06067116
C        2.10659529       0.55166531       5.44436655    -156.20683840
C        0.25632791       7.31119199      11.03424126    -156.31615627
C        6.02355032       2.10000599       1.94353743    -157.30927590
C       11.14949955       1.21154945       6.85654154    -156.16584423
C        7.71594430       3.49556638       7.19046437    -155.13652075
C        8.92128502       3.21524953       7.95281095    -154.62814618
C        6.58868563      10.42941796       9.25054315    -155.23033352
C        4.93029285       1.31104127      10.70191682    -156.57048117
C        7.67295078       4.91250393       8.33463121    -155.56399235
C       10.21883237       9.70507399       1.05966621    -155.87458468
C        0.60954128       7.01146607       1.55513875    -157.03514901
C        0.13594715       9.18197534       9.48074440    -155.66365345
C        1.94500534       6.58479294       1.31815249    -155.79014780
C        2.49783193       4.91961514       4.73295109    -154.53304405
C        6.31962277       8.82706680       5.42674074    -155.51417171
C        0.70246664       4.90234815       3.16847206    -155.64479513
C       10.13578116      10.63407753       8.60373756    -155.61769613
C       10.25393178       2.17765311       0.93756093    -157.53531393
C        3.34469764       7.05304604       3.98542498    -155.99721902
C        7.78056505       8.13577804       0.71467206    -156.25920836
C        9.11612589       8.69503083       1.45718008    -156.08937642
C       10.35815354       4.66316546       8.85508762    -156.25463643
C        3.21548875       3.03886086       6.26714762    -156.23731248
C        8.80716844       6.10052329       7.52402837    -155.13509657
C        6.29260231       5.29986963       8.10104833    -155.59184288
C        7.12923612       9.03663029       4.17998314    -156.29734998
C        0.43814786       9.54947530       2.18274187    -157.42204226
C        7.42658075       1.99947032       8.97757673    -155.15410231
C        2.30362172       6.70525960       6.47255746    -155.87073700
C        7.91182902      10.25151788       6.79646587    -155.89943473
C        5.79499096       5.36467523       0.39016453    -155.17204025
C        4.40775961       6.47791806       9.29102490    -155.24873263
C        5.09224161       6.56728673       5.81471535    -156.31925530
C        3.94374715       7.96897973       7.35927426    -156.01473369
C        2.08585967       2.78499904       3.63892160    -155.99055263
C        2.98733170       5.58650394       9.20856086    -155.29878359
C        6.62549216      -0.58226856       4.10215118    -155.50675597
C        9.11913783       9.18230155       4.97523270    -157.45539622
C        7.17972142       4.54684157       2.12578688    -156.39281209
C        3.84142823       3.33216058       9.75595074    -156.94576387
C        4.74296551       9.17834362       4.39910437    -154.64311543
C        0.08601878       9.48800784       6.60437598    -154.71349776
C        0.17432816      11.06577419       4.14885253    -154.94417604
C        9.47180644       1.21994373       6.69586496    -156.50808774
C       -0.04233024       1.81760144       4.71666270    -155.13554706
C        0.05013572       5.68511502       7.22765147    -154.98283397
C        4.01496807       0.82801227       0.65632962    -155.03441900
C        7.63493729       2.41370426       7.84315247    -157.16691924
C        7.78165239       1.97466804      10.84124887    -155.13322062
C        5.75726018       3.64917524      10.39715651    -155.35644624
C        5.08729421      10.09214612       8.58103386    -155.79544386
C        8.33974172       4.80491140       5.47861784    -154.05274067
C        5.93486668       0.42107441       4.51458013    -155.66571504
C        0.81592973       7.63809058       7.17604621    -155.03114630
C       -0.17036371       5.34540753       4.13665255    -156.08832601
C        9.99189315       1.76687692       8.94000905    -156.09433969
C        2.42180496       6.05140803       4.94668997    -156.49470160
C        9.67886904       3.43342477       2.96495420    -154.98726245
C        2.58588492       1.83478145       6.96020875    -155.86691584
C        9.38599338       1.80900057       7.78481656    -156.67441870
C        3.14796479       9.89558724       3.99365616    -154.95588786
C        1.20878760       0.91610440      10.59814087    -155.27852219
C        9.92707668       4.86245356       6.66182027    -156.21178329
C        4.32112018       2.99616092       0.14791444    -155.29998175
C        5.14160696       3.06654459       4.08254640    -155.89224680
C        0.48669986       6.83751304       2.96620464    -154.13132703
C        9.73571530       1.63740707      10.43607250    -157.46807478
C        1.94631016       0.47679744       9.10556780    -156.23944350
C        4.57503636       6.94670396       1.92659664    -155.58119942
C        0.49725252       9.95055240       5.31862629    -156.81174888
C       11.19223210      11.01847480       7.63686189    -157.06976001
C        7.12240761       1.44307725       5.41188764    -156.54882288
C        5.18640546       9.20074287       2.10468157    -155.90599391
C        2.70613410       4.58763866       1.76532202    -156.88162671
C        1.85431012       9.77927423       5.66424892    -155.43946779
C        4.84096767       4.12186470       2.85455633    -156.80205604
C        5.22428847       1.81841695       3.74711216    -156.60399148
C        1.00760100       4.52556228       0.27138325    -156.20901284
C        9.63145004       7.86205048       5.01298523    -155.97779186
C        7.30442872       6.03905582       6.42937910    -154.33139987
C        1.46210574       3.61330381      10.28239840    -156.38927678
C        4.95158301       1.36606079       2.41681406    -157.23219414
C        5.21862341       8.38548621       8.04756196    -155.53826445
C        2.28544136       3.83299046       9.13949288    -155.25339355
C        3.30877185       3.93968049       8.07835549    -154.57543087
C        7.44129250       6.28104386       2.55114433    -155.50626987
C        3.05522536       9.48522425       6.93565656    -157.09615170
C        9.01822159       2.68044020       0.13113131    -156.59503166
C       -0.37236364       8.05185696      10.26695814    -156.06241807
C        2.39770945       7.94850507       9.78061166    -155.30736802
C        1.21719275      10.47915300       8.36220621    -156.62190551
C        5.93648682       8.90255011      10.50397702    -156.45348790
C        8.11223708       2.06428680       4.84260956    -156.77453304
C        5.88794786       1.66018689       7.64264655    -154.29186103
C        4.13394507       3.31741622       5.20030169    -154.59065472
C        8.33990482       2.88244666       2.61645011    -156.51604110
C        9.75308016       5.62514809       5.24707916    -156.82199657
C        7.87020555       4.14473150       2.94245709    -154.07391505
C        1.73920406       5.42340259       0.48402392    -155.16688731
C        5.28989870       9.59322996       0.59511224    -157.29989867
C        8.82266307       6.87093795       2.43367874    -154.86645121
C        8.16816997       8.41644285      10.26602303    -157.21132358
C        9.10342573       4.24283153       9.19508869    -156.89592253
C        9.38518875       3.90769088      10.53410728    -156.61842338
C        9.24630251       0.43707791       5.66099777    -154.93285621
C        2.22769260       4.52462717       3.03529438    -156.93131441
C        0.59520467       6.57647477       8.15391491    -156.63974796
C        6.24820612       4.06948741       6.21632524    -154.06886350
C        1.81058809       3.52301091       7.24999636    -153.96583788
C        0.94163629       7.30874546       5.53374609    -155.91450355
C        5.45204319       6.46105338       8.32437757    -156.92308145
C        2.11215161       3.49336995       5.15591638    -157.35858562
C        3.46771955       9.11046084       2.71384336    -154.87572369
C        6.84081857       9.40118356       6.64421620    -157.98158501
C        8.61864503       8.65343998       8.18617636    -155.83798828
C        7.47936035       0.70287983       9.17872419    -155.73419590
C        0.26485485       2.04735688       9.57251609    -154.58868809
C        6.92174946       1.96317484       6.69085231    -156.13051557
C        7.87072748      10.43945413       0.59140115    -155.07655765
C        7.83538885      10.72561001       2.61708077    -154.55250579
C        0.67552230       9.04196914      10.85432960    -155.09274054
C        0.08550838       1.23584068       3.24332471    -157.08282329
C       10.31587767       4.83038783       0.53930657    -156.40194597
C        1.93797024       8.96336517       8.00287219    -154.99136612
C        8.69748822       6.88604113       9.01124085    -155.18248512
C        9.55776085       0.35019382      -0.36874497    -155.21238989
C        8.94245557       9.95728305       5.94520731    -156.27116647
C        2.70552519       8.66458524       3.94462789    -155.45324489
C        5.81173603      10.90397765       0.66571012    -155.82026533
C        9.37525044       8.18813358       9.64467213    -156.89425971
C        2.69970791       1.20304643       4.46847681    -154.40411979
C        4.27076535       6.95573978       4.89031127    -155.24559880
C        9.60775685       9.78385194       3.89917699    -155.51064344
C       10.21088390      10.41117236       9.84387324    -155.44831971
C        1.39129801       1.43968474       6.19984113    -157.01558312
C        9.17153686       2.59474676       5.67778633    -157.04142048
C        9.11461448       6.75851762       5.82820927    -156.06421933
C        3.35537534       0.94138837       8.40662415    -156.45115481
C        1.33457136       2.12214428      -0.06105579    -156.19852071
C        5.47719342       5.74160245       3.48262701    -155.96010031
C        8.36003153       0.80680692      10.98846415    -156.39327751
C        4.56988236       2.11753395       9.28868712    -155.95385870
C        7.21523402       1.93441463       2.60538096    -155.30886377
C        2.15936401      10.51146881       0.59238302    -155.31487718
C        6.36607403       8.19668009       7.19070358    -155.30720493
C        7.50859899       7.40166974       9.50535095    -155.39175346
C        6.09968603       3.71972201       2.31873578    -156.61642268
C        4.06160418       4.22497737       1.49435631    -156.05345255
C        0.17715307       4.00284420       7.45610210    -154.64060133
C        6.17139626      10.09571260       7.44707716    -154.15005076
C        3.29904013       8.53358224       0.63351065    -154.87136433
C        6.30711833       1.38555684       0.49752979    -156.20604127
C        5.32553091       2.93110523       8.39710990    -155.58264789
C        3.15180311       6.87280818       9.77360918    -157.35741533
C        3.17576813      10.46009189       2.37757187    -157.20129304
C        3.70825055       4.66716688       6.72435333    -154.90418925
C        4.39731025       6.67942434       3.27004071    -158.15130240
C        7.11242581       7.20044617       1.47163086    -156.99131566
C        0.97482415       6.12036728       4.52395302    -156.18084870
C        3.48853128       7.01319495       0.95890437    -156.78924365
C        5.64890652       5.59593120       4.81689391    -156.03456479
C       10.41001977       6.56353540       2.17825115    -155.44639621
C        1.73054882      10.70433072       2.07011495    -156.05725698
C       10.02974354       8.81177877       8.09368702    -154.88568510
C        5.24452391       4.90586026       6.25072875    -156.76080411
C        1.38073991       1.81961303       2.97078235    -155.69573773
C        3.88200785      10.61495118       7.71628137    -156.91280743
C        5.83509215       4.83021386       9.95489089    -156.41681132
200
Lattice="10.87342332846187 0.0 0.0 0.0 10.87342332846187 0.0 0.0 0.0 10.87342332846187" Properties=species:S:1:pos:R:3:gap17_energy:R:1 anneal_T=3400 density=3.1 run_id=386 time=2 pbc="T T T"
C        2.85449109       6.75340712       7.69776393    -156.56385925
C        2.54813239       4.74076908       0.79566819    -157.06013018
C        1.85647393       8.06697102       4.76665870    -154.11702087
C        8.98045819       7.57961331       6.71143570    -157.18971705
C       10.03384282       1.22681573       1.22614158    -158.44680411
C        7.89170231       6.68427389       9.41842881    -155.65641405
C        6.36189863       5.43564607       7.45301405    -156.21886710
C        4.37084434       0.04285314       3.24483612    -156.38431275
C        3.45535647      10.18605987       1.10642519    -154.87920096
C        8.88506564       1.37583600       3.83341452    -155.27033332
C        7.82060099       5.59706204       7.54315473    -155.13846837
C        7.46501831       2.29660836       7.08948288    -155.24461732
C        5.37920213       5.18043595       6.60525672    -155.87230843
C        4.19942482       9.44071932       5.60497789    -156.22462019