200
Lattice="11.117851317845838 0.0 0.0 0.0 11.117851317845838 0.0 0.0 0.0 11.117851317845838" Properties=species:S:1:pos:R:3:gap17_energy:R:1 anneal_T=2900 density=2.9 run_id=254 time=0 pbc="T T T"
C        9.06313898       2.25580091       0.37606577    -155.33373230
C       10.35644527      10.53059529       2.94000460    -154.69415467
C        9.65168468       9.17627424       0.21151934    -145.52076321
C        4.88709614      10.56456033       9.32070624    -153.65897366
C        0.01884865       0.76787775       9.60233253    -155.00850117
C        1.63635871       4.28295210       9.91247611    -153.91525851
C        7.26250290       2.71817012       0.23366055    -132.24357286
C       10.81374473       5.68783714      10.20188490    -151.46418127
C        5.66912580       5.25967757       2.50436272    -154.09315223
C        3.80849779       5.13503534       9.05790247    -152.31090460
C       10.19299062       2.36150944       5.50757230    -117.83089916
C        1.72227747       1.98157911       3.04631350    -108.02756837
C        5.55263296       8.16440523       8.33996722    -150.25369915
C        5.76541751      10.01630573       9.62200001    -153.26338558
C        9.00295805       3.06660358       4.45902551    -139.16502279
C        6.51937460       2.76623259       6.46458583    -154.15921673
C        4.26292885       3.79716870       0.41612450    -153.45715219
C        6.96227644       0.98260793       8.86324001    -155.11447199
C        6.92830029       7.66314579       9.03568901    -156.03622414
C        9.28838665       7.73789110       7.34953344    -153.75786355
C        8.89504819       8.43367959       5.08572767    -154.04552718
C       10.99198612       4.48898812       3.66934677    -152.30118745
C       10.82975444       8.83534532       1.60833061    -149.98979558
C        7.81262530       5.44953712       3.66252041    -155.74774484
C        1.88465368       7.08101509      10.55353142    -153.28693257
C        2.63684303       2.73052205       4.36542432    -153.70549258
C        3.99212023       6.78261196       6.85502253    -152.79706589
C       10.69362747       5.71449775       8.79658849    -154.82781000
C        8.95641873       5.67830915       0.16143342    -152.14044740
C        7.63089290       7.33581401       7.89673184    -153.97631277
C        8.48028562      10.28420147       0.31024253    -150.16253348
C        8.52101031      10.82653026       5.41506066    -154.59996484
C        4.68377287       2.28832063       5.11055383    -154.63624575
C        0.74509838       9.13191401       4.62036777    -153.54299259
C        8.09365123       3.06943863       9.75142292    -154.89601205
C        1.02531938       7.12985581       8.99438619    -151.15521491
C        5.40199719       2.35757373       6.73593922    -155.77453219
C        9.70124806       5.25748736       7.32563006    -153.81671775
C        6.67156687       5.28761673       3.64969041    -155.85687557
C        0.45281897      10.12629463       7.42882595    -153.96311513
C        9.89353130       0.23510587       4.01778023    -153.02298049
C        3.11813482       4.42111364       2.51133361    -154.55958930
C        8.09028252       3.25149344       5.52680619    -153.81884619
C        1.55906741       4.82236801       7.52429494    -153.33398378
C        3.50849369       0.54274237       3.91158251    -152.99415154
C        9.79502713       7.44003275       1.92324375    -154.52374084
C        0.44366453       2.38138816       8.75749813    -154.83635922
C        9.87247408       1.54391378       6.95728453    -155.24924720
C        5.03486350       4.55989778       8.22558677    -151.37735631
C        8.04258694       6.00739755      10.00945713    -154.88454545
C        5.23388416       7.29920293       2.07600302    -154.30378435
C        4.75441570       6.54084317       6.01350125    -156.31407292
C        2.06509641       7.86814785       7.40605659    -154.22551344
C        4.86319276       7.09473452       4.49339079    -157.39773477
C        1.39695802       6.86338315       3.04025427    -155.28537237
C        2.07688133       5.28722761       6.20969797    -153.64154189
C        4.86973006       0.40361136       4.92012728    -155.03645004
C        0.31818068       3.39673705       7.02455864    -155.99068205
C        6.84038032       0.40597946       1.96506910    -155.90466594
C        9.85555271       2.04964260       5.54320502    -116.71471239
C        6.61984662       8.23911719      11.04522951    -153.41031183
C        0.00235793       2.79951943       2.87881195    -153.54754202
C        0.58994099       9.49501191       9.67051832    -154.92961132
C       10.12960775       6.35105033       2.29961637    -153.80925084
C       10.59078734       7.61102530       0.89605657    -154.01945722
C        6.90774338      10.12591662      11.05300089    -153.62396368
C       11.04690831       3.23981970       4.89143210    -153.14045515
C        5.69697602       0.29320776       2.36074231    -154.03751503
C        6.02763203      11.04541852       6.12443517    -155.56542227
C        8.20511880      10.27162718       7.82126387    -155.43516339
C        6.00918752       3.70577997       3.44922443    -154.06039588
C        7.15533793       4.03159972       1.68041876    -151.30144820
C        5.06877295       9.08307329       8.41739194    -152.24242806
C        7.47217446       3.33968024       4.16740427    -154.73849633
C        5.43705177      10.36557303       5.03346265    -155.07174099
C        4.08707779       5.21956437       4.74058509    -153.70293194
C        9.70605097       2.97835007       4.57545165    -139.55242825
C       10.50014350       9.52654214       3.70977127    -155.70318562
C        3.15585769      10.31998984       6.71328104    -153.78469490
C        0.59719427      10.82408433       0.12143584    -155.22540476
C        7.70586057       9.38293286       9.62878190    -152.53451121
C        3.90015336       3.22063029       6.10443415    -154.09187326
C        4.57356161       6.32354477       8.52116596    -155.01745502
C        7.40474469       9.42464703       6.14650410    -155.72195852
C        7.80613247       3.97817844       0.24275940    -150.76499274
C       10.50989385       4.92712040       0.44235484    -153.28401443
C        0.53374914       8.51922034       5.57043264    -154.54501473
C        1.45055718      10.13435507       5.69567523    -153.45920457
C        2.97166824       4.32597818       8.78187958    -154.97524148
C        5.27707701       0.11324643       0.23847902    -154.01514503
C        4.01734663      10.26383357       5.55808070    -156.86792179
C        1.70113131       1.66931202       0.24003997    -152.49090873
C        9.76756604       6.14498096       3.88616710    -152.96821595
C        2.05128804       4.60957233       2.94205029    -154.36836276
C        4.07371414       8.19869269       1.24721168    -154.92053018
C        7.38863492       8.26150855       2.59791944    -152.87361067
C        6.74679025      11.08381957       0.36781076    -153.67761024
C        3.73495321       7.76180560       5.23570749    -156.10071042
C        0.62982183       1.36237038       3.73400819    -155.50371611
C        3.99528881       7.11788189       9.79360405    -154.40442469
C       10.01855153       5.88843654      11.02290487    -150.46965039
C        4.16752657       1.24135257       8.18068177    -153.77510647
C        3.28707057      10.83471300      10.13047494    -155.27397028
C       10.93685270       7.97822569       3.94920532    -154.49031242
C        5.67457355       3.07368565       5.41712858    -157.09281518
C        4.04334017       7.92194713       3.90778021    -155.40186862
C        8.29502887       0.64047384       1.96311236    -155.43543079
C        0.81921887       6.50429879       6.75161539    -154.02778875
C        4.71350201      10.18762070       2.13894118    -154.37425793
C        8.92833503       4.94470885       1.00890165    -151.56958230
C        2.44427073       3.64767807      10.82021532    -155.99370963
C        0.07411238       1.78033489       7.60487713    -155.84402095
C        2.64126794       9.77338068       1.61072095    -156.07617774
C        1.46414319       8.87546965       6.87033181    -156.63775781
C        9.68423774       3.21871802       8.20470744    -154.29305621
C        3.41226869       0.36300563       1.55155174    -154.48810610
C        0.70677849       5.29412068       3.43630549    -152.24997929
C        9.93043144       4.39824422       3.53333097    -150.99331560
C        2.95848247       7.82527741       9.84725880    -156.68488789
C        3.01934159       4.22160380       7.26741699    -155.06233863
C       10.82767540       4.16693732       6.35883283    -154.17511808
C        8.31901007       9.14377676       2.01133048    -154.63316299
C        9.22627121       9.91534452       7.63700772    -152.03318454
C        5.77032048       6.69494771       5.56213872    -151.32032244
C        2.84933852       8.32529166       4.79406196    -152.40159902
C        6.09189322       2.12504387       8.56926179    -155.03182821
C       10.15795827       9.78800065       5.03694254    -155.43834574
C        4.21512209       2.80481153       2.43465379    -154.01785583
C        1.46465461       9.29352310       2.26382800    -155.10086378
C       10.77662223       7.91596573      10.54439255    -150.22432625
C        7.31101008       9.16226574       4.68375064    -153.97894738
C        4.42120258       9.00416990      10.55092984    -153.42185023
C        9.31880509      10.56145845       1.88726638    -147.51222129
C        0.10775466       0.93739941       2.16525713    -153.72206159
C        7.12602016       0.04441526       6.83357619    -155.21142836
C        2.16920397       7.54474067       2.39382904    -155.52240238
C        6.88048241       2.64919497       0.68022906    -129.81755857
C        1.39514581      10.64643219       8.26134178    -149.75129301
C        0.17442463       8.77575364      10.86405301    -154.57569002
C        9.96584180       6.97911999       3.34492787    -153.97788510
C        9.84554665       0.40393377       5.97605632    -153.77191926
C       10.11967951       9.19458534       0.96474488    -145.68298396
C        0.30935421       9.97403566       1.93233815    -152.08257584
C        7.80510963       8.42414048      11.01901362    -154.09932193
C        1.65531465       3.82004924       7.07152045    -153.82288911
C        7.58871177       1.52163360       1.35587756    -154.40955092
C        3.31018458       4.15228399       0.72922320    -153.76021155
C        8.99317434      10.86073989       0.99553465    -103.52483966
C        4.93173431       4.30566587      10.78659494    -151.91734042
C        1.35246438       1.75894414       5.95788975    -149.24439029
C        0.92102170       9.71126524       8.43363512    -154.42471944
C        6.27886212       2.01141942       3.53500977    -153.75685753
C        3.83901630       0.82863903       9.67563253    -155.75064710
C        8.82519473       5.75365482       4.65219818    -153.55120503
C        5.15164541       7.98677532       9.34020695    -155.59661067
C        9.10367467       4.03067693      10.72195575    -153.61333732
C        9.12870095       7.24691567       8.49613968    -155.18317500
C        1.80668419       5.98373876       4.44122583    -153.25772916
C        7.09699145       9.85089434       7.66626990    -154.02188827
C        3.45016945       3.52391415       9.85891031    -155.42219084
C        8.73681893       1.91202583       1.71194898    -153.45257911
C        3.31992382       9.50221628       9.04430534    -154.62291107
C        9.83735279       1.39253311       4.65956931    -151.32709510
C       11.03330006       4.19249726       8.35776690    -154.69734184
C       10.13140884       1.04448100       8.54262342    -154.35136171
C        6.90885517       4.09236989       0.50901859    -147.10398731
C        0.61266699       2.22219165       5.45547405    -152.85045601
C        9.06669669       7.31844793       9.60127634    -154.41671115
C        6.10158798       7.21296175       9.75587006    -152.74041125
C       11.03823638       5.97477777       0.14235408    -148.48411868
C        9.14582244       1.42738758      10.28300074    -155.01437064
C        0.71033953       3.73805509       4.13362824    -151.32017564
C        6.59132933       9.69046374       1.14772915    -153.08385608
C        3.91184934       6.30403294       3.37475706    -154.21862655
C        3.91074867       0.84263196       0.26585006    -157.31961657
C        8.38924154       8.52123267       9.91846864    -155.48985973
C       10.94717006       8.73488442       7.33892701    -153.53891280
C        1.71660736       7.91011774       9.18492392    -154.59333317
C        1.60117071       2.31758281       2.97068987    -109.08899766
C        9.69344332       3.89165932       0.94280157    -152.66562819
C        8.63487935      10.98964026       2.77675007    -149.31374517
C        3.09424255       8.63419004       2.60951535    -155.29169516
C       10.86062871      10.30657059       1.08461533    -151.66039821
C        4.38222339       4.26937720       9.37517260    -155.40168876
C        7.50895231       3.55684523       8.67061212    -152.88824909
C       10.28832620       8.23528154       5.49563173    -155.64661678
C        9.27949237      11.09958469       1.03296957    -104.61913489
C        1.99247461      10.49395086       0.32503038    -155.24030124
C       10.76183548      10.64059531       9.78120764    -155.29998683
C        4.40840593       9.45742246       6.25047825    -152.80882705
C        7.97204417       1.27115953       9.75355755    -156.80185035
C        0.81953129       0.33267391       3.90809151    -150.73431167
C        1.37843568       8.13277495      10.85354664    -153.73599697
C        6.88267263       1.49963138      10.48294418    -154.52857030
C        9.36536665       9.31196761       3.57947006    -152.30032387
C        1.23202469       4.72856670       4.29719407    -152.16130730
C        4.81235083       2.09549262       0.73489887    -154.95798114
C        2.30171764       2.40521372       8.57162989    -154.60076124
C        7.44157813       4.22890822       9.84674738    -154.32699396
C        4.17321891       4.62558204       1.64172863    -154.96145735
200
Lattice="11.117851317845838 0.0 0.0 0.0 11.117851317845838 0.0 0.0 0.0 11.117851317845838" Properties=species:S:1:pos:R:3:gap17_energy:R:1 anneal_T=2900 density=2.9 run_id=254 time=1 pbc="T T T"
C        1.03565787       4.02904261      10.54400342    -154.98137550
C       10.76825048       3.53686645       7.76860973    -155.59761956
C        4.64951877       2.05056538       1.50771405    -157.05497011
C        1.07475935       2.83330658       7.77522485    -155.68887878
C        9.84109951       2.34596669       7.58452034    -157.16102626
C        6.17586635       7.94472761       8.18067065    -157.28136772
C       10.18763182       1.19414617       8.09507431    -154.39858012
C        9.48976429       3.42609930       1.62695301    -154.59986838
C        8.40900908      10.34814024      11.00812924    -156.09696174
C        3.57184321       7.85169343       3.91034843    -154.43388041
C        3.99942465       4.91480182       1.95931006    -155.20380069
C        7.57453651       4.82969467       4.23490075    -154.79610287
C        9.59378291      10.02379916       9.71702429    -155.88507822
C        8.51723024       6.26844469      10.71744190    -154.70607329
C        1.21040047       5.56575202       6.09980913    -156.85941057
C        3.04324497       2.62108904       9.55746089    -154.63202162
C        1.23657189      10.78353753       9.72660788    -155.76493339
C        9.02887376       5.19800685       9.55591550    -154.90011527
C        6.10562376      11.04074902       0.24082489    -155.26022659
C        9.40056577      10.47078125       4.91742564    -156.74293653
C       10.72049931       6.62304856       6.79284039    -155.29417282
C        0.19584206       1.16628484       0.55732455    -156.25616244
C        9.01005124       9.93995944       1.00081008    -157.25584627
C        8.78275789       7.59269196       9.91333219    -155.78480819
C        8.90310863       0.28886512       7.36565432    -156.69711629
C        7.80652160       3.43653896       7.28052494    -156.25835208
C        6.30630098       5.33547908       4.72258529    -156.31735431
C        5.64656768       5.18148572       3.24452255    -155.84728888
C       10.15401143       2.39059374       6.42363878    -154.89622972
C        1.90441011       0.05180852       7.60006310    -156.39866472
C        0.82281772       3.41306918       0.62468872    -156.83525081
C        2.00789507      10.91828589      11.13263806    -155.35807813
C        1.98446975      10.12544967       5.12381743    -155.17549126
C        3.58525134       6.71711670       5.72657174    -154.62139580
C        9.28047074       5.44405602       2.18297899    -154.31901476
C        2.99248086      10.15452285       7.94900798    -156.95106824
C       10.23708402       7.79699360       6.32215503    -157.79741773
C        5.12276123       3.81358977       0.33430823    -157.06251305
C        0.55366566       6.71212479       9.06595180    -155.15912640
C        4.23262159       1.96944954       7.68796083    -156.97554877
C        2.45384320       5.91474137       4.19915685    -154.28275771
C        1.21290199      10.62095007       6.10820310    -155.14947241
C        2.35663983       9.08696454       7.57552600    -153.77664212
C        9.11378079      10.06379007       7.33389062    -156.91902360
C        7.81351473       1.26118682       7.40677926    -156.43800663
C        3.05412935       1.64199546       4.63860104    -157.08599385
C        6.03085621      10.15078726      10.24771268    -156.04451398
C        6.44587448       0.82374940       7.54660847    -155.42579182
C       10.47616229       9.63501902       0.99278299    -153.89215652
C        4.92705370       0.81270604       7.65312860    -155.02970144
C        0.95842438       8.62222723      10.82104916    -155.90427922
C        0.07647837       1.38956465       5.70498087    -154.27007601
C        5.82340822       0.27173807       4.46051530    -157.05558565
C       10.99919049       4.96767833       5.97259867    -155.16995718
C        2.62519152       8.58564950      10.11327563    -156.61278815
C        6.88168314       8.46495411       5.67028206    -156.38853477
C        4.81942178       6.56329011       6.42765233    -155.78654000
C        9.94262773       1.43400270       0.91862025    -154.71596489
C        5.25051646       6.73572799       5.13425709    -155.56884937
C        9.06028169       0.36374719       3.09813380    -156.59986668
C        3.31714435       5.55364468       8.22212912    -154.45782109
C        2.80909190       5.45557411       0.05737712    -156.84355823
C       10.54551545       1.77429789       4.53709506    -156.88274243
C        0.14786631       8.90644398       6.17388737    -154.75230858
C        3.41538169       0.11185448      10.69640693    -157.26438182
C        6.11476264       3.25925370       4.53581651    -156.12219763
C       10.40210629       8.31720898       3.47909810    -154.93410127
C        2.04808610       1.85870462       5.52850722    -155.72270362
C        6.31622922       1.57792328      10.21420348    -154.99718785
C        9.93173223       5.35041036       3.31372006    -157.83660480
C        4.24898706       3.27705338      10.25601772    -157.15597698
C        5.72399240       6.25774932       3.97840080    -154.94330193
C        9.55690499       6.40388236       7.71374313    -155.52615568
C        8.44314088       1.46468797       2.86979537    -155.43121950
C       10.73108351      10.89857394       9.38037575    -155.79326002
C        5.74964128       0.04806203       9.28988756    -154.92970800
C        1.62570781       2.04748573       9.12997950    -155.55668246
C        8.85068796       0.71927829      10.59909238    -154.75841868
C        3.67058085       0.76539291       9.53324621    -154.98152652
C        7.30639618       2.65648828       0.93593074    -156.59431563
C        0.04467275       2.82232215       1.68528837    -155.80214324
C        2.51534715       5.65710740       3.04107699    -156.46399163
C        5.22987061       3.02674608       9.44842812    -155.83574056
C        2.32160748       8.78673808       0.17670824    -155.43463695
C        7.08967590       6.32231068       6.41208733    -154.85042540
C        3.99959142       0.41380865       2.90747377    -153.49669663
C        2.46987514       6.30186496       8.29751927    -155.42204625
C        0.67083781       8.11056148       9.40883745    -155.90250130
C        6.75333866       8.41307821       9.32797732    -154.28587306
C        5.62843447       7.14589887       1.21223492    -156.33823775
C        9.05447817       7.50085851       2.02895228    -155.06840703
C        4.73331402       3.17887164       7.93468819    -156.84278486
C        6.58490321      10.94367906       5.75373265    -155.60610228
C        3.36104875       9.67745585       2.40605868    -155.18669450
C        0.98538183       6.54806977       4.97609454    -156.15002035
C        3.91788633       8.64098305       6.72533279    -155.66206794
C        7.85960934      10.79086419       3.63502596    -157.60876377
C        8.64806512       7.94162573       6.42337195    -157.42629572
C        4.46237198       4.68198290       3.35473381    -157.05793583
C        5.85750667      10.42457546       1.99347521    -156.24925606
C        4.98769046       9.20170076       2.34961334    -155.70160080
C        3.11834606       1.64728756       8.46348655    -157.16322739
C        8.48159753       2.59938699       1.89574930    -157.50898534
C        8.31347338       2.35991959       8.06830253    -158.60709264
C        3.95588715       9.09649253      10.01721739    -155.96359177
C       10.52659287       7.72001360       1.27928668    -155.82028197
C        2.92294982       2.94775374       4.02325021    -154.41823334
C        2.34234227       7.48521570       0.81418582    -155.64132293
C        6.88309510       4.42168065       8.24778912    -156.54573227
C        3.44269825       6.66583005       0.27039726    -156.63668548
C        4.74248625      10.00882341      10.83521330    -156.26616456
C        8.51751931       2.62314584       9.38231026    -154.84595897
C        0.62179808       0.92802595       2.71181070    -157.49842378
C        1.05214564       5.52770673       9.03662290    -155.14034939
C        7.77462448      10.41613701       5.32002527    -155.73543183
C        2.81041493       8.57386458       3.11781240    -156.83608603
C        9.97822709       9.75326848       5.99104319    -156.16783361
C        2.22368144       4.25079927       5.76432796    -154.80688510
C        2.02760702       7.66100004       9.11348061    -156.16065851
C        8.39155405       6.71294751       7.04869550    -157.29536750
C        6.56695900       7.79251311       7.07912506    -155.32782732
C        7.22061083       0.45282453       9.09047778    -155.84788862
C        4.04865450       4.54730125       4.67982604    -154.88807078
C        8.88696551       5.55623514       4.40634913    -156.27402201
C        1.96727044      10.84479689       3.81979353    -156.80226411
C        3.96588210       9.40545762       8.58696141    -157.09308474
C        2.52191780       5.63747328       6.66749773    -156.47880109
C        2.24467195       3.23746271       0.92059811    -154.67374445
C        0.19229436       5.86870235       3.92327849    -155.96404837
C        1.47432715       2.87220795       5.93429767    -156.68251294
C        8.56908390       3.69766393       6.12576931    -156.61454942
C        3.98838463       3.45219289       1.42873284    -155.86541626
C        4.74047392      10.68618962       4.56755797    -156.03790143
C        3.56180379       4.68039305      10.08812705    -156.36482288
C        3.96611557       0.62741482       4.26301779    -156.03468368
C        6.52240977      10.98186888       3.31571015    -156.42004293
C        5.70120080       5.08202543       1.04805205    -154.83379760
C        6.45606955       4.23114291       9.58373237    -156.45023599
C       10.53729936       8.48640044      10.92981510    -156.46767038
C        4.65891336       8.30022090       8.00772135    -156.60560797
C       10.88757838       7.71844598       4.93601469    -155.74207841
C        3.15057671       6.91113433       2.33033499    -156.59651163
C        8.53371802       6.57942211       8.64872107    -155.90446849
C        5.58337381       3.92779234       5.48202348    -156.75116549
C        4.52370917       5.43954217       9.48959752    -155.70347350
C        5.26150090       4.04362923       6.74040860    -156.32810247
C        9.91367684       6.57211769       0.59127402    -154.41298259
C        2.89104159       0.83107606       3.70224449    -155.47319136
C        8.73209384       4.62535968      10.77215285    -155.50546344
C        9.50547381       8.57725552       9.88562650    -156.73750592
C        0.57389793       6.52833559       1.26796871    -155.66808530
C        8.16589503       9.17777515       7.07876929    -155.11338685
C       10.92904797       1.96611418       2.70486205    -156.28252047
C        7.36349746      10.75988986       1.21366912    -154.90064075
C        3.72247898       0.60272096       0.69841230    -153.88701524
C        5.68246722       6.06586633       9.95447936    -157.15626138
C        8.80509365       9.19725362       1.98569272    -155.70588341
C        6.03987279       8.19118814       0.46246704    -156.25867735
C        0.08020985       4.25714757       4.21232039    -154.66489353
C        5.89292815       8.75377365       4.98941373    -154.92689866
C        8.45719385       6.79597562       4.34115405    -157.08115574
C        4.90795323       1.85305675       2.92749702    -156.11296407
C       10.39967148       1.92426659       9.75844940    -155.82384848
C        7.38254234       2.14122034      10.52531431    -155.83552456
C        0.21659909       3.15096583       5.62952401    -155.52026862
C        6.91810522       8.80350380       2.05305578    -154.59861842
C        2.53890588       0.45216079       6.24228439    -155.73467525
C        0.19194303      10.75000609       3.38167236    -155.71532441
C        5.72825053       2.11757267       4.16717080    -156.10272062
C        4.28131777       6.54080982       1.34210254    -156.78242499
C        6.07749560       5.24351222       7.52264950    -157.29729099
C        5.90744806       7.21958799      10.52929450    -155.66017581
C       10.16283901       0.25034622       4.19029593    -157.39463318
C        1.31260688       9.71993716       2.51425760    -154.01135890
C        5.82150707       2.58384424       0.55926906    -156.60811967
C        8.41361187       0.17170521       8.98743753    -155.44637660
C        9.31346852       8.95388386       4.04080530    -156.61969465
C        7.71300935       2.76247475       5.33474530    -153.97313857
C        1.08770609       4.52370917       2.95524718    -156.43269834
C        1.79963547       3.53955697       2.70077068    -154.30289327
C        4.60745994       8.63902631       0.60942947    -155.10727387
C        4.86523844       9.52774287       5.47576413    -156.35813277
C        0.48951899       5.63855171       2.69616789    -155.32624110
C        5.41383770       6.26115138       8.00947797    -154.78862068
C        7.79687130       3.76541612      10.91963115    -155.07078033
C        0.22334874       5.79993844      11.09166878    -156.45285725
C        1.12710553       0.42584706       1.56936254    -155.35118752
C       10.52419141       0.64547688      10.38578528    -157.40396517
C        8.30845923       7.16150834       2.90825202    -155.18899964
C        6.81911187       7.18342162       1.71871975    -154.20634224
C        7.84180966       7.47785568       5.31077522    -157.03725547
C        1.54094531       0.81574121       9.04356044    -156.34714536
C       10.62342935       3.20820053       9.87307445    -154.30469870
C        4.02338362       1.67172460       0.05176794    -155.16265070
C        1.54282423       5.19404890      10.69507279    -157.01229799
C       10.07780968       5.71047309      10.43670504    -155.78955642
C        9.61995433       2.65066252       3.86317539    -154.00720904
C        8.20409596       9.35245882       3.32489350    -156.51957958
C        9.79478254       4.21056377       6.67908253    -155.47365617
C        6.32046512       5.19924093      10.72443503    -155.84820209
200
Lattice="11.117851317845838 0.0 0.0 0.0 11.117851317845838 0.0 0.0 0.0 11.117851317845838" Properties=species:S:1:pos:R:3:gap17_energy:R:1 anneal_T=2900 density=2.9 run_id=254 time=2 pbc="T T T"
C        4.21476632       1.50813653      -0.29523788    -154.93711343
C       10.74611484       8.14400398       5.30951890    -156.16940309
C        4.01078710       2.58372194       9.93308861    -156.81442851
C        4.82867183       9.88054564       3.23691794    -156.19195752
C        9.90146944      10.25153723       1.36777366    -156.89824350
C        9.86920544       2.79645091       2.56924650    -156.08366171
C        9.95603586       9.17390613       0.49585172    -155.91052728
C        0.57239146       1.20987793       5.53830204    -154.38015550
C        6.49375907      10.10783900       1.20765436    -154.62203597
C        3.90055360       7.72665096       5.36534163    -156.00366757
C        3.15373418       5.37217911       0.22268500    -156.09668605
C        7.29200968       4.10961368       9.74596405    -155.50183849
C        0.41737414       7.96614059       4.20310369    -157.34905736
C        5.62332025       4.75444906       7.83299320    -156.11213351