200
Lattice="13.033549111243852 0.0 0.0 0.0 13.033549111243852 0.0 0.0 0.0 13.033549111243852" Properties=species:S:1:pos:R:3:gap17_energy:R:1 anneal_T=3900 density=1.8 run_id=503 time=0 pbc="T T T"
C        8.93112223      12.83783734       6.98822409    -127.29210352
C       12.77763537      11.37121116       6.05953159    -154.91668932
C        2.18454013       1.97277103       3.90723645    -152.37301472
C        7.18388373       4.70232205      10.26590102    -156.31064145
C       12.89286498       7.59111698       2.80144408    -150.07064119
C        8.49913827       1.34117827       8.81477173    -154.73400248
C        1.53977046       3.63564336       5.31191418    -155.87022533
C        9.91983423      12.55470955       6.16808802    -148.44805291
C        3.13042389       8.31150730       6.50487493    -149.21283794
C        6.19685306       2.72463737       0.77597450    -154.47446081
C        5.18105734       4.50535906      11.99237707    -154.71643245
C        7.84175212       5.45480097       5.47982539    -153.40084067
C       11.64315616       1.90444916       3.22479982    -152.06412503
C        7.39650002       6.81676776       2.02418838    -153.30025604
C        4.03573421       4.62142281      10.09744240    -155.09297866
C       12.80960667       0.94166741       8.45902101    -155.10170123
C        5.13581789       3.23785944       0.95442464    -154.61822750
C        1.68568104       9.79516833       7.55381496    -152.36366463
C        2.48191359       7.32485460       8.40269001    -153.12752661
C        4.73056575       0.41513288       6.75534064    -154.19944741
C        5.17336755       9.11871410       1.83105725    -155.04541603
C        6.16235325       9.10312597       5.02130513    -153.70311178
C        9.69918928      10.58004866       0.90138071    -147.26066811
C        6.00322665       2.60316470      10.04653336    -154.24988798
C        3.43496580       2.61635465       2.85592431    -153.66703695
C        8.48504901       0.07681570       0.26935133    -151.42657221
C        6.18067842       4.37809948       5.38367690    -154.47955463
C        5.79018026       4.51617690       6.83377654    -154.54437684
C       10.45147270       7.40570171       4.64436186    -155.92968419
C       11.78429646       8.91425681       6.61957016    -153.70037816
C        2.94635108       2.69701928      12.19619572    -156.55988851
C        0.83276428       6.81874885       3.82034178    -152.72853166
C        7.56274294       7.16130963      11.88671409    -154.95737296
C       11.97660648       5.19548548      10.32500817    -155.15229552
C        9.52318423       0.13074605       6.76462053    -133.29282312
C        4.66851302      10.85934458       3.77926003    -154.87434544
C        0.62464327      10.93286683       9.34680121    -154.37063232
C        5.06388574      12.93124878       8.75811490    -137.53879689
C       11.80017133       1.23656449       7.64403318    -156.41512513
C       11.34290229       1.55415950      12.07577875    -155.76635323
C       10.06635739       4.40816788       4.32230286    -154.02895822
C        2.53716280       3.27327159       6.22307656    -155.34516156
C        5.41786390      12.44688300       8.51619919    -136.88724378
C        6.63493671       5.40896198       3.59162906    -153.66206247
C        0.40068388       4.57630066      12.25824844    -154.60659021
C        2.13347469      11.45860110       8.96985793    -154.27596096
C       12.37037607       7.67330654       0.24998869    -153.74861246
C       12.74185828       0.18582192       9.50697049    -157.69826870
C       11.14490964       3.27955376       0.72500811    -151.28653950
C        1.41051675       2.44302148       9.90498902    -155.23419025
C        6.47678763       8.99441314      10.90736018    -153.21405119
C        3.96911974       5.84398275       2.27131750    -155.09995978
C        9.02583703       7.73853945       1.70534867    -152.07010749
C       11.74793286       1.10951736      11.04400391    -157.01571772
C        7.63215962       0.59667066       3.58622014    -156.39075064
C        3.71143344       0.17345438       0.86387537    -155.24307059
C        7.38005168       4.47502999       8.01138377    -153.41468079
C        7.40214355      11.70133792       8.19277167    -153.53842048
C        9.90154816       1.44733653       0.45656523    -154.45484438
C       12.25515949       7.32688783      10.21199427    -153.24451581
C        4.85194719       3.12698304       4.26967339    -153.05965882
C        7.69666266       5.37907605       3.48137827    -152.92512485
C        4.99432568       4.99405198       5.83712710    -157.70565414
C        7.75630418      12.63953189      12.99869740    -149.29628030
C        8.73120062       3.26998714       8.06978710    -153.92455918
C        8.78736218       1.83716998       3.40970678    -146.63849778
C        6.53292312       3.86589404      11.68836954    -155.96134513
C        6.67322928       7.49028944       6.88376020    -152.66568615
C        2.42048647      10.83795653      12.28401577    -152.95566041
C        7.40976817       4.99750587       2.16406443    -156.69374015
C        9.61806847       6.74277630       5.36449151    -154.48989057
C        2.54653393       2.05381364       5.60963954    -155.69162241
C        2.60229145       5.55736197      10.35583251    -155.69090428
C        9.75320030      10.30418056       7.24220887    -150.20819008
C        5.29396698       0.45697709      11.02699512    -154.67807523
C        4.86023653       9.69865490       9.72246719    -151.96080737
C        2.52270860       2.25299233      10.82620027    -156.40048329
C       10.07385168       2.48196572       5.40163713    -151.21111583
C        1.22157460       2.56901680       7.47288965    -154.40719101
C       11.79684777      12.17562877       6.88330402    -143.37711447
C        8.47936638       8.90269606       8.11308455    -145.80511894
C        0.83076363       5.18107038       2.73137572    -154.28441708
C       10.36357444       9.16390141       6.26437988    -155.02404982
C        6.09770685       8.22092414       0.60890004    -153.84469923
C       12.59538726      12.26917056       0.23784793    -149.75353272
C        3.23282849      11.59636572       1.66609162    -155.57988599
C        2.66362733       1.74994947       7.51272018    -155.39489593
C       11.66445298       8.12403273      10.03425576    -150.97651129
C        6.32248344       1.74064352       3.16677446    -154.58544506
C       12.09936948       7.32020162       1.88222696    -153.86834315
C        5.60365714       6.33705495       6.78059966    -154.96860962
C        0.07708588      13.02721481       0.14772225    -152.75870251
C       10.38014008       4.63325727       2.09688952    -152.85162952
C        7.42367497       2.67899389       3.95530418    -154.81184084
C        3.49654932       8.08362873       4.52859787    -155.01700465
C       10.18474111       2.98592093       1.10726125    -154.98198904
C        8.25714437      10.12310546       1.50854207    -151.57435584
C        6.08284861       5.48299254       2.17884447    -155.79404432
C        8.82543318      11.03976800       8.25930794    -154.01740196
C        6.26935869      10.72014628       5.50035323    -153.33629086
C        3.21241795      12.35949305       6.59640954    -155.37849067
C       12.48595758       8.15466157       4.96486986    -153.81147887
C       11.17549938      10.10494973       2.74450050    -153.56227646
C       10.04298823      11.77134111       2.17322701    -153.93851639
C        8.48908941       8.28163441      11.96993330    -154.56560312
C        1.88351728       6.46191635       6.43814315    -153.82914574
C       11.00529427       2.53464733       7.14891472    -154.37163797
C        5.12075111       6.92370803      10.92246606    -154.53827712
C        7.03644823       1.25632726      11.08327399    -153.87660911
C        1.46699112       0.28666249      12.19804648    -154.32817925
C        1.73872759       1.24306041       1.69284949    -155.62223889
C        4.68531327       7.29552912      12.14718957    -157.42559913
C        2.20231789       4.78174850       8.85851232    -153.34673107
C        3.71005189       4.96592558       4.93915467    -153.40352273
C       11.77586376       4.52189863       4.41700463    -153.76722555
C        8.55339694       2.50066887       5.03699752    -138.05168725
C        9.08692527       2.22065610       5.26002762    -136.62652644
C        4.75887462       5.40009917       3.23248962    -154.19656712
C        0.75959264      12.14361838       8.89581434    -157.56871712
C        4.77499712      11.79408466       0.46180471    -154.40324262
C       12.38222356      12.13836586       3.07574815    -152.92293763
C        9.70092274       4.02495547       0.37315703    -156.94352769
C        2.39735192       9.68214139       5.22862980    -153.79608856
C       10.01398859       9.11688940       8.45404219    -144.86763470
C        2.78267577       9.40954471      10.03356498    -151.77136570
C        4.31334881       4.36614772       1.90628689    -153.10793345
C       10.21780723       2.25151954      11.57543384    -154.28399941
C        9.61896778       5.46511051       0.12491288    -153.73927142
C        1.57527385       0.94462863       6.65670274    -154.43168592
C        0.04861788       6.89611600       2.09344866    -151.12998168
C        9.24124249      12.66671987      12.35980586    -156.69496212
C        3.89243034       0.91192354      10.16051175    -152.24965690
C        4.10311766       9.54599294       4.83592896    -154.54481400
C        6.01472224      10.28502124       3.81404658    -155.50977903
C        6.99908104       5.25760338       8.59745034    -154.16687991
C        4.69646999       1.57291477      10.28290981    -155.31650762
C       11.94073815       6.27945969      12.12147438    -153.91142993
C        3.16346394       9.49538367       3.63883658    -156.47814300
C        0.61847058       1.82108658       2.54326251    -152.98455892
C        0.02747264       5.58971124      11.50928858    -157.23239542
C        8.62328283       9.97466637       7.57284394    -150.78599083
C       12.92358506       3.13760538       9.43050266    -154.48426380
C        1.00250671       1.72501629      12.93205686    -154.76945165
C        8.46659350       5.13860707      11.76526748    -153.75414060
C        8.04348540       3.54296179      10.88294834    -155.10551963
C       11.30900203      12.29304802       5.01113896    -155.09863254
C        1.82250724       8.27125970       4.82174846    -153.98604591
C        4.28660397       9.21663515       2.99401477    -157.48190634
C        5.12050347      12.87124232       4.46730109    -153.27605540
C        3.24137850       5.75220050       4.50790060    -151.75603349
C        3.52371124      10.03781392       0.31152007    -154.88631773
C        4.76211997       3.72809032       2.71461458    -152.85571264
C       11.44479858       9.66540632       1.44883539    -154.80193464
C        5.88881816       4.97852902       9.83147980    -155.05546702
C        9.09135668       2.13670701       2.78620786    -140.42340098
C        0.38714594       3.85747436       6.01894511    -156.00224796
C        0.36668196       6.05770689       0.43626808    -153.60572506
C       12.39147738       6.17244122       2.98425264    -154.61616810
C        2.45730625      11.03949430       2.19170858    -153.04851152
C        8.87687660      10.70437568       0.87031785    -147.30220992
C        6.75420672       2.53957401       7.45758826    -153.32666925
C        9.36004329       9.31503845       7.72147853    -149.31026208
C        4.61428043       5.45100821       8.83608159    -154.01371432
C       10.41506999       1.89718948       7.88163479    -154.87376383
C        9.12894543       2.42245454      10.08314460    -155.06559394
C       11.88307773      12.96481017      10.54833803    -154.82131054
C        3.15113420       5.94290739       0.97883388    -152.18406847
C        2.10220720       4.90574968      12.01995606    -153.43259743
C        4.99772744       1.43206121       1.69674652    -154.46519915
C        2.57218395       7.86066380       5.74684371    -156.95869252
C        6.45847549       0.23683132       8.84347161    -156.78595769
C        4.74621904       8.64631311      12.02729395    -153.66795521
C        3.52578357       2.09512999       0.19718065    -154.82603296
C       11.93757100       0.26386029       5.55729680    -154.36111069
C        0.65495409      11.47635280      11.96973780    -153.25125999
C        7.19506652       3.51242418       2.23710444    -154.63486544
C        2.45880511       2.00641062       2.82232383    -156.56482673
C        7.76146546       3.38017276      12.88318106    -154.06128183
C       12.08692244       8.77048373       1.85003410    -156.60540790
C        8.38999533      11.77474287      11.30198998    -153.68564625
C       11.32886516       6.59985040       3.26105916    -151.88982560
C        8.71879268      12.82540333      11.10815504    -153.73459854
C        7.64534957       0.44756817       8.82482060    -156.45230080
C        6.90483545      12.77973378       4.89008336    -153.63191413
C        5.79465077       6.16615905      11.89293109    -155.64504799
C        2.42756369       5.32000801       2.88070109    -155.02109152
C       12.76241219      10.22403726       4.64940584    -153.22139917
C        1.96496393       9.17176064       2.70920565    -153.21855261
C        9.83494672       5.32282326       6.73835792    -153.26502488
C        5.28816705       8.17155305       3.03161656    -152.68019926
C        8.25522844      11.85255316       6.78190301    -143.88232948
C        9.01338999      12.13104100       7.16157030    -136.94814848
C        2.96734813       0.16631069       2.51295950    -154.90364414
C        3.00960289      12.29183590       5.16115511    -152.75594548
C       11.63099586      11.75172562       7.40291253    -137.93611878
C       11.69162793       3.95948795      10.67922093    -154.54992928
C        3.73428126       4.40591308       3.20557534    -155.80971944
C        8.32807294       0.13971443       2.83778161    -152.08881157
C        0.41385819       4.43330960       8.02254048    -154.66693043
C        0.40291262       5.18711794       6.06276391    -153.78094470
200
Lattice="13.033549111243852 0.0 0.0 0.0 13.033549111243852 0.0 0.0 0.0 13.033549111243852" Properties=species:S:1:pos:R:3:gap17_energy:R:1 anneal_T=3900 density=1.8 run_id=503 time=1 pbc="T T T"
C        0.15879816       0.53427125       6.88752689    -156.32201787
C       12.07994949      11.05440468      10.94700823    -156.62911431
C       12.03540082       7.17478632       9.34019320    -156.30845207
C        9.56704212       8.87540380       2.70494368    -153.97245033
C        4.63122404      11.64677949       9.34104038    -154.37515856
C        4.90189175       4.82492865       9.79909143    -155.70163217
C        9.45503180       5.81830666       2.79196869    -157.11519900
C        4.99255312      10.81582556       2.70211540    -155.28541762
C        4.08487069       9.20416205       5.74456284    -156.04854897
C        7.61998629      11.24099297       3.54569883    -153.86595438
C        2.95774240       6.07699654       7.93649299    -156.18439384
C       11.34118186       6.80056705       2.71478401    -156.70338715
C       11.79059167       0.40807000       6.57919222    -155.73121077
C        0.55112623      11.32688406       3.71379252    -154.62421487
C        8.42001160       4.90354701       3.13421666    -156.81271785
C        9.30042784       1.82147759       8.05541110    -155.28934240
C        4.78847381       7.96284683       3.62522955    -155.80327772
C        5.45383649       7.93939947       0.17257853    -154.70510435
C        2.41781459       4.29391579       9.57161690    -156.38278503
C        4.67299656       5.60161087      12.08748288    -155.18274240
C        8.05604974      12.31593493       6.81029008    -155.32246283
C       11.67589643      11.39679601       9.44203735    -156.72688701
C        8.79438726       8.35225018       8.95351386    -155.76313466
C        7.78909659      12.85992920       2.59570951    -157.02564808
C        3.25497249       3.01237904       6.83411541    -154.30195544
C        8.95245815       2.64059705       0.57819040    -155.20645797
C        6.50856342       1.73552133       8.49775672    -155.40325905
C       12.32434157      12.81500256       3.98546381    -154.06837525
C       12.35640410       2.92206958      11.41556432    -153.16454803
C       10.72846168       7.89133175       7.51560059    -157.37233513
C       12.64338982       4.02753611       1.71547573    -156.52897177
C       11.59774727       3.69146605       0.73836359    -157.82327088
C        4.87328311       9.59897432       2.08843074    -155.73736201
C        2.18390149       8.03510483      11.15275584    -154.20700985
C        8.94449465       9.40147695      12.23876329    -155.51435300
C        7.36133550       3.13527237       2.59885059    -154.40441971
C        7.98667216      10.20442177       8.37567146    -155.31466513
C        0.89762313       0.47883435       8.04126969    -153.91283831
C        3.84024401       1.27661659       6.78637352    -155.25980797
C        1.96972118       5.32305786      10.70380221    -155.82492779
C        7.79321519      10.14548406       5.90176047    -153.99976707
C       12.52438048      12.47138607      11.38666895    -158.62041758
C        1.09240822       5.51506811       0.03850189    -155.40883380
C       10.76362620       2.33207991      11.89899169    -157.07390674
C       12.29706235      12.57354303      12.75762888    -157.20953092
C        5.93675555       3.67277594       7.53156669    -154.92628357
C        6.20867449       2.74225873      12.28191737    -155.69312386
C        7.48216954       9.75183178       7.31998005    -157.11562996
C        2.87457532       1.99616625       7.79863714    -156.54082651
C        5.36958763       6.73341821       8.35271938    -155.82629661
C       11.83023972       6.02590503      10.34299447    -156.71504831
C        1.51672714       6.69018593      10.21415783    -155.85857849
C        9.30422060       0.53753485      12.75465723    -155.23849227
C        4.87534241       5.27901750       3.26494315    -155.80748074
C        7.98440432       1.85707221      10.95375961    -154.65664724
C        6.59259071       7.19403687       2.37295312    -155.81344212
C        7.81863061       1.79925539       3.72178208    -154.85635712
C        8.82775315       0.27037185       3.00466318    -156.05889812
C        6.76832205       9.60680748      12.22227585    -154.22681515
C        1.87680500       4.43127636      12.61684048    -154.23608019
C        9.63746239       2.23441953       1.76989080    -154.24026277
C        0.68468492       9.86655308       8.63354023    -154.33518353
C       11.58695550       3.45275660       5.20327954    -156.12434385
C        5.52244509       3.47402735      10.01516161    -156.54531538
C        6.37190666       0.62628810       0.55111971    -154.83554522
C        4.32016536       6.53635095       7.89889120    -156.47114719
C       12.38566442      10.23256121       8.68658678    -157.68123960
C        2.46284551       1.77145483      10.62036143    -155.05681690
C        7.17274005       5.69499625       0.17974177    -154.84666168
C        6.97891814       4.04174268       1.07192339    -155.92646967
C        7.91533954       8.53428976      12.12627072    -156.98474194
C        9.44207645      -0.04134059       7.23690421    -155.27734341
C       11.04672792       8.12846414       3.16259069    -156.54134406
C        8.09766586       5.35429928       9.19402195    -154.86111245
C        9.00319775       0.40816905       4.24425797    -153.82347700
C        4.30101907       0.61956540      12.49220065    -152.75858232
C        1.67998538       4.81202543       8.16362865    -155.78699270
C        1.70327633       2.25460849       5.45275471    -156.69395120
C        5.88731930       3.73982051      11.64906036    -155.24781646
C       11.84834332       0.53383201      10.65058623    -155.39910530
C        3.99676390       6.86898015      12.66394373    -157.32671654
C        4.10116263      10.76389990       7.71059552    -156.82757615
C        3.05034577       6.40417772      12.02875371    -153.16583198
C       11.98386617       7.26233267       7.84461951    -155.18448404
C        8.26470383       0.70110458      10.82702138    -156.49867809
C        0.82828726       4.80629067       4.51519939    -156.00323082
C       10.66172991      13.01188735       7.84656150    -156.83292207
C        4.22068028       0.75834141       5.54013162    -157.31278926
C        0.93030737      10.27181826       2.66976613    -156.29953552
C        8.13242634       7.32104880       6.17670319    -156.15239870
C       10.21767689       9.48967497      11.98536502    -157.80520932
C       10.65770254       4.54146199       1.36548584    -154.81425283
C        7.45309169       7.31537921       1.49894938    -156.06963960
C        1.24823082      10.16357463       1.56966942    -155.56916207
C       12.76926784       3.97692684       4.92133781    -156.58291626
C        4.34930837      11.27845139       4.71225361    -154.37370885
C        4.54774416       3.67131618       4.94491550    -155.95547668
C        9.02720555       5.74831650       4.28938011    -154.13621586
C        0.71069337      10.91044913       5.87779178    -156.55164312
C        3.46002932       9.00838511       1.47335149    -156.11711537
C        0.67780060      10.80571153       7.17075895    -154.82693254
C        2.25717610       8.20052663       0.25500791    -155.31005243
C        9.19786684      12.59744656      10.24357455    -155.64635937
C       10.84187963       3.21859585       6.07332108    -155.75523594
C        7.15706069       9.84193271       1.24675672    -154.41908832
C        0.24289583       7.33769265       2.31285542    -155.37355522
C       12.27881538       9.27398277       6.04321358    -155.08074331
C        7.66311430      11.81175815       8.32899832    -156.68117964
C        5.84372208       3.03630863       0.93854587    -156.63699462
C       11.89822272      12.37931708       0.88206108    -153.01560217
C        3.02818873      10.08056396       5.00814125    -155.81356600
C        1.36991725       3.73588438       7.28034503    -156.96949669
C        1.95116140       2.56037556       9.62622747    -156.34931609
C       12.51386241       8.27247182       3.48557507    -154.54434630
C       10.88452540       0.82162712      12.57123609    -155.78167624
C        6.46255499       0.13963754       2.41731932    -154.58590146
C        1.51379460       3.64273361       5.88267936    -156.56002839
C       11.54616049       6.04939148      11.66527409    -156.23380476
C        0.86958276       0.27953835      11.67171267    -155.95029437
C        4.12681266       6.81420015       2.48841733    -153.96011321
C        7.80484111       6.99698264      11.59524483    -157.00156830
C        7.96584455       3.51946230      11.23060523    -155.87513924
C        9.55167557       2.62185481       6.60890871    -157.60755496
C        4.19845807       4.88124661       1.73416584    -154.52189729
C        5.40442631       6.62237237       2.82434403    -158.13178772
C        8.78347818       2.26120347       5.17994949    -154.17128905
C        1.87045767       1.13949583       4.85106091    -154.66850607
C        6.60095825      -0.03163646       8.65601007    -156.87998034
C        5.12295378       3.03087364       5.80132394    -155.65724368
C        7.38368804       3.55355806       6.70495294    -156.15532795
C        0.28794759       4.58526775       2.68276058    -156.91618964
C       12.79859332       6.59021860       1.34822942    -155.42084235
C        7.57078464       7.20824344      10.16902265    -155.23722727
C        6.47491080       2.62674239       5.97176367    -155.19112572
C       12.98372185       6.89310525      10.57109461    -157.56655512
C        9.39750171      11.65207111      11.24982971    -153.76030143
C       11.20133188      10.53596920       6.16291370    -155.17718461
C        9.88102032       7.96237762       8.58320467    -156.10277975
C        5.94521433       1.80671058       0.45882524    -157.42667816
C        6.50295899       7.44991150       5.71154886    -155.75367307
C        5.43729692       1.22764042       4.97081316    -157.12272968
C        3.04824737      12.68700007       5.01954560    -155.20841565
C        1.84793569       2.58121620       8.43419210    -156.37064785
C       12.42219746       8.89655725       9.12622142    -154.73736161
C        3.98010703       4.06895673       3.78339167    -155.84754768
C        3.20014035       7.61199672       0.84777763    -155.92347371
C        3.73929917       9.45143454       8.19196359    -154.82344966
C       10.92966058       0.60534189       9.46949904    -155.58956705
C        7.93993385       2.24949934       8.52994958    -156.56083202
C       11.45028570      10.09921496      11.81943491    -156.92153447
C       10.78279855      11.04173607       4.82696188    -155.03038466
C        1.03866438       3.67727251       2.25539051    -155.30356028
C        7.58231933       4.52520915      10.86828560    -154.27098050
C        8.40568773       3.21909113       7.47226404    -157.39361022
C        8.40662614       8.47303208       1.23351464    -155.93510043
C        6.59995467       6.80154457       8.64288529    -156.02278563
C        5.06848658       8.45130515      11.88516310    -156.55294241
C        7.78931816       8.77146125       6.19289086    -157.45649232
C       10.51416407       6.01386203       1.87538435    -156.84855478
C        6.21433105       0.20235106       4.34836996    -154.51984230
C        9.60062958       3.15887613      11.83452776    -155.29319816
C       11.48346912      12.03796843       5.33279392    -156.21920317
C        3.92913282       5.55518537      10.24959605    -155.08500702
C       12.03646957       7.87444027       6.11388149    -155.98059871
C        6.71247330      11.13319248       2.47101754    -156.48259522
C        4.53693934       9.50285189      11.89510770    -153.03261353
C        0.52093532       7.12508939      12.93066227    -156.05546053
C        5.39716662       8.92420141       4.48226361    -154.77784817
C       10.77315372      11.20585452       8.42720612    -154.50133857
C        5.39205747      11.01297103      10.37802865    -157.28735392
C        6.36468607      12.12886440       9.64517825    -155.46194247
C        9.19496036       7.36950754       5.31200541    -155.90154537
C        7.70372684       4.49983283       2.26454006    -157.13057625
C        2.56522404       3.95357072       2.44674907    -154.52186989
C        9.73888947       5.18629683       9.51471242    -155.65425607
C        4.98023642      12.91099465      12.90958703    -155.58337875
C       11.77731048       2.46220686      13.18708432    -155.68992221
C        1.72549853      11.85411719       5.70441951    -154.79613041
C        4.56414036       3.93321232       0.24268599    -154.93376515
C        7.70239742       7.62204559       8.92013494    -157.30492640
C        6.81666349       6.53074652       5.00201548    -153.67302016
C        5.06208711      11.39804723      11.68744416    -153.92456295
C        8.71339679       5.97950559      11.92975087    -156.36604481
C        2.74019943       7.27416713       7.16588440    -155.56288653
C        3.42619422       8.38491225       6.98613873    -157.15555991
C       11.41418277       8.59360544      11.96013207    -155.56527802
C        1.45236748       9.74053169       4.50264808    -154.68980409
C        3.14589472      11.40838284       7.02225469    -154.29814825
C       12.57987733       7.42980074      11.88703993    -157.39259543
C       10.98786841       4.82706615       9.14638432    -155.07827031
C        6.23872985      11.57882256       5.96446488    -153.75177841
C        8.15762019       0.90207930      12.36929428    -155.79034218
C       10.55512851       7.94111990       5.77443573    -155.89884773
C        1.66772081       1.17180339      11.89611128    -155.39063613
C        6.15929037       3.43976215       8.77705264    -157.35753530
C        6.69568608      12.60169549       7.30615146    -156.54470551
C        5.68218427       6.32137559      12.91076005    -156.53353644
C        1.03892636       5.80781465       3.23835471    -154.84659809
C       10.06178261       5.54228216      11.93100209    -155.24600201
C        2.20811782       9.49839442       0.86297735    -158.13347202
200
Lattice="13.033549111243852 0.0 0.0 0.0 13.033549111243852 0.0 0.0 0.0 13.033549111243852" Properties=species:S:1:pos:R:3:gap17_energy:R:1 anneal_T=3900 density=1.8 run_id=503 time=2 pbc="T T T"
C       10.46328109       2.93687569       2.50362748    -155.65358338
C        2.43216453       8.95956143       5.05920669    -155.13146300
C        8.67244538       1.28606851       0.21922430    -155.62965321
C       11.75787746       9.75524657       4.67310083    -157.19444494
C        2.72349042      11.67824247      10.92005485    -157.15515937
C        2.48139225       2.24689263       0.88181474    -154.80512977
C        8.35407487       2.26454006       8.51764591    -153.66545637
C       11.25529077       6.86805477       1.90753811    -155.94572555
C        5.08344909       0.95124316       5.63276105    -155.55976069
C        6.15253899       6.25014724       0.07810654    -154.20310598
C        0.40209020      10.59645790      10.39636685    -153.20691535
C        9.22854782       7.47191214       8.18909621    -154.85383149
C        4.11663345       6.15531514       3.45531117    -156.05893987
C        3.90723645      11.04737960      10.71597554    -155.74131774