200
Lattice="14.526882050296985 0.0 0.0 0.0 14.526882050296985 0.0 0.0 0.0 14.526882050296985" Properties=species:S:1:pos:R:3:gap17_energy:R:1 anneal_T=4000 density=1.3 run_id=524 time=0 pbc="T T T"
C        4.30652324       3.19007424      10.04064675    -154.55067262
C        4.29003523      14.16490120       5.88696084    -145.22449513
C        8.38262107      12.59736347       1.46438235    -154.12653968
C       13.38336948       4.28561905       6.53278244    -154.80724085
C        8.43163477       3.65608209      10.92332916    -154.80229336
C        6.96427442       9.59717010      13.96546164    -154.85445040
C       10.64133333       7.33328627      13.49496498    -155.66340417
C        2.10352157       2.21598870      14.17691493    -154.54717007
C        6.29027067      13.67585372      10.93601113    -154.33211972
C        2.42983893      12.55786488       7.97339880    -155.48784720
C        4.21811263       1.71574099       5.38098954    -152.50254121
C        0.49632109      13.27611751       7.91648248    -154.22292512
C        6.01171771      11.75035908      12.52854963    -153.86057906
C        6.47099961       6.01369336       2.20779553    -151.47336123
C        8.89813654       9.84369129      13.36053322    -153.87122731
C        1.97401442      10.69729088       8.53065000    -153.91446343
C        5.23351263      12.85659568       6.62287816    -153.41667306
C        2.06056558       1.01674083      13.52962612    -154.49849606
C        5.04842563       8.32611150       7.52154014    -154.64367928
C       13.19876186       0.18493157      12.90369183    -152.36596139
C        2.84613579       5.40994162       0.34825294    -153.05956128
C        3.90699040       0.29659826      12.99484802    -154.46616265
C        1.64868490       9.52906808      10.68328696    -155.48281731
C       11.99600866       4.80447570       0.72427838    -155.35420047
C       11.31402965      12.35826552      12.74752785    -155.84544216
C        2.85961673       3.48178856       0.86617406    -153.45772459
C        3.53511675      14.46674076       9.62876607    -150.89087419
C        8.99800885      13.08947613       4.89160794    -153.25650758
C        3.46056479      13.91903372       4.83679801    -155.58213019
C        6.11462614       6.59866185       5.52609857    -154.28338369
C       13.47240474       6.13181144       8.18464872    -153.71507220
C        2.32864467       4.48858865       3.96779993    -153.53913599
C        5.98177780      13.40761484       9.29780011    -155.07011506
C        2.80053590      14.47641566       3.66376681    -152.26340324
C       10.73227161      14.37064543      10.61562075    -155.31291012
C        3.86595196      13.53765949      11.73607916    -152.56662537
C        2.19309433       2.11812109       3.30201840    -153.22069907
C        3.28804354       5.88791962       8.54662957    -153.80221780
C        4.81059152       8.52822401       9.99986980    -153.89379474
C        2.90155584       5.59831170      11.57780878    -154.03152923
C        1.21543226       5.35382427      10.33243371    -153.32543847
C        7.70943083      11.47491487      14.42154763    -154.89987235
C       10.41007989       3.57066403       2.13665739    -152.84023170
C        2.21619207      10.64362858       4.85550864    -149.99790156
C        4.90455139       5.01148377       9.19940954    -153.80640619
C        7.16762171       1.18328137       5.48052774    -152.96120525
C        2.78105535      13.00291044       4.53552501    -148.21224552
C       13.39600786      10.29020406       1.92042475    -155.45726981
C        6.07730658       3.76214286       7.47347069    -153.99170283
C        9.11794279       7.32985793       9.93654712    -154.65356930
C        8.02806346       8.75873658       6.44563567    -152.86758460
C       11.26375212      10.82412508       9.39677176    -151.73022267
C       10.26562458       7.23613049       1.26350898    -155.37415759
C        3.22817826      11.62568938       0.86751779    -152.25129504
C        4.36394800       2.16375003       8.71087050    -153.69767743
C        8.58689809       9.28815426       4.72420015    -151.21726007
C        6.68272892      11.53348726       8.21047752    -152.21089876
C        8.17565658       9.50165585       8.30204046    -153.08516964
C        8.95304815       5.66968227       5.62373374    -153.13104357
C       11.07442326       9.66550455       5.17540511    -154.31136327
C       12.26378268       9.38151854       4.79786597    -155.47064783
C       11.83946698       3.11511553       6.16942154    -153.62729064
C        3.42446549       4.52820346       0.04706782    -155.86227299
C       10.20032624       1.54215927       3.34426257    -154.96605617
C        7.09933084       5.18541413      11.07421989    -153.47143715
C        8.58980346       5.76018474       4.41910657    -154.34783473
C        9.41824249       8.03480394      13.20089731    -154.93204874
C        5.46460627       9.33093593       7.00946755    -154.53266480
C       12.69399629       3.57561769       1.10025878    -155.52502776
C       14.00456801       8.24329375       6.82711160    -151.02937427
C        3.84421974       5.88768719      14.50971128    -154.40007528
C        0.20848400       3.68920338      12.32421451    -154.58826317
C       13.72597146       0.75114004       0.49296103    -153.42712345
C        4.59088695      14.43386642       3.02786708    -152.77124519
C        4.77428884      13.60260918       8.44404073    -156.28116740
C       14.48604698       2.40302230       7.99364928    -151.75089735
C        3.35537564       9.54346422      11.32162721    -154.03125195
C        8.18971861       5.55383038      13.19906692    -153.68199893
C        3.01668138       9.31473846       1.04145106    -154.55580225
C       11.79935826       5.57596935       6.89021637    -153.44480238
C        9.44963509      12.23388635       5.33573830    -153.84792032
C        7.25289451      11.37941515       1.35688051    -154.20364995
C        4.33734928       7.31156859      13.76170759    -154.38561781
C        4.55830316       5.74328998       5.03600515    -154.89687280
C       13.85812251      10.23401408       5.35577087    -152.54029383
C       14.27613354      13.35390896       9.26533253    -157.71206407
C        4.76297240       3.46075364       0.69376757    -155.23474371
C        0.55702893      12.13106508       9.16557643    -155.52201121
C        5.16308631      10.32550439      12.35132167    -154.57984335
C        2.72803223       5.43456468       7.62521850    -155.39317980
C        6.61079180       8.51456874       8.73068517    -153.76956799
C       13.81054697       3.52760635      11.94302912    -152.37424250
C        9.69484885       0.72888050       6.27494481    -151.47661646
C        1.62608107       8.62044066       9.92239793    -154.21878423
C        4.03857490       4.51126511       3.17111666    -153.17138954
C        9.16415280      11.71946041       0.78979317    -157.98622254
C        9.76966230       5.44643315       0.55977597    -153.23470087
C       10.85018631      12.31815680      11.22733322    -156.06643751
C        2.57589220       1.28320598       0.38977077    -156.51195565
C        4.50089292       7.58278547       4.95766167    -154.77584848
C        5.55586415       3.76294184       1.73143002    -153.59223665
C        7.61385847       4.15377307      12.15150440    -155.80283391
C        0.09765144      10.43895933       8.83905571    -154.85063401
C       14.30289206       4.26979928       8.99503084    -152.31168615
C        0.61686807       5.28936850       4.17127797    -153.99332097
C       11.46563220       3.52441043       5.13480247    -157.19169359
C        3.73292930       3.63410292       4.63456929    -154.87958004
C        0.16579966      11.23421896       0.81025137    -152.09774533
C        9.49379681      10.94645596       8.81855828    -154.75417237
C        9.89295195       2.61085840       4.69691867    -156.21618482
C        1.06644456       2.84754489      11.67618482    -156.07175808
C       12.15921818       6.95323399      13.79477078    -153.68083157
C       10.00671196      10.73755939       1.48598382    -151.82198160
C        4.44967113       9.21496783       3.20608287    -153.08917141
C        2.84366622      12.09283033      10.68254609    -151.97180994
C       11.72579413       6.18502341       1.19427386    -155.07681060
C       12.43723365       9.82261278       1.94089313    -156.67402566
C        2.18466874       9.04915800      14.00862101    -153.22227459
C        7.01012126       5.36868527       4.60188380    -154.70208500
C       10.16737927      12.79096323      13.13423345    -153.16683225
C        7.89767017      13.58321579      14.03802342    -151.90115863
C        4.40479759       8.97335673      14.37600585    -154.86885047
C        6.35970917       9.14502090       3.60327688    -150.73953680
C       12.09450092       4.88842655      10.63550805    -151.04870998
C        9.68929959      10.28328927       7.23674062    -153.13342025
C        0.63117850      11.39947677       6.66882669    -152.74534982
C       10.94065973      14.19120939       2.71189287    -156.75687238
C        3.84934773      12.85945747      13.72200562    -152.23622810
C       11.45322624       1.95505684      12.43544684    -152.34980026
C        5.51614765       0.80196815       6.95743225    -148.14305600
C        3.70047625       7.49967718      10.30895827    -154.47569262
C        7.01071686      10.90973200      10.87534687    -152.30871272
C       13.70763854       3.07913245       8.29721753    -149.92627560
C        1.61101669       5.33553493       8.32471692    -156.63215861
C       12.91001102       7.94540550      10.21614602    -150.10602218
C        0.49341281       8.30140127      13.47544085    -152.65620924
C        6.96086060       8.61310458      11.63572746    -153.01711675
C        0.81609263      10.84148471      12.06941299    -151.71045441
C        4.37254792       8.64849207       4.11593055    -156.66709580
C        5.55406281       0.40353790      11.80665075    -153.82230743
C        9.02319846      12.50562621      10.23590258    -153.06763057
C        8.57369315       2.70698278       4.84486043    -154.39103288
C       13.37837223       3.71073222       7.81010212    -151.60470296
C        0.65612406       2.06001356       4.91354353    -154.05621377
C       10.30211610       5.79318982       2.34908399    -154.01334393
C        4.81377291       0.71198137       6.19950671    -155.99772926
C        3.85680002       7.89350095      11.49297179    -156.43514435
C       10.04982774       0.38107062       3.25997760    -156.34566609
C        2.18013635       7.85042875       6.93243149    -152.57519029
C       12.21440580      10.62217237       2.99721536    -152.44030485
C       11.99744682       3.70153671       3.84333360    -153.58009009
C       11.66672782      12.84792313       2.80534430    -152.67705101
C       11.56227954      12.82016226      10.10921364    -154.97844205
C        4.54056583      13.54101520      12.72855574    -157.41834546
C        0.77771842       5.43651128       7.29011238    -154.11824834
C        4.81413608       9.01225972      12.24187614    -155.51876610
C        3.49839279       0.38800576       5.09460659    -152.48486069
C        4.96257176       5.84308966       6.08027006    -153.16064403
C       11.13988139       7.82029999       2.52822950    -152.46318807
C        9.50459028      13.49428222       7.06188054    -153.54822138
C        5.58557162       3.71732743       8.91899714    -157.30986429
C        5.17723549       3.59729180      12.84095023    -154.57363533
C        2.97973952      13.25007081       7.01532188    -155.37607184
C        7.07867361       2.46006937       1.99881181    -150.97748069
C       14.39102665      12.61979297      13.03546518    -150.90593657
C       14.32892423       5.23627274       5.67624842    -155.75267631
C        4.63997329       4.83445919       0.61999425    -156.16069888
C       13.17836612      13.95851779       1.44654188    -152.00100335
C       13.43934155      13.71631109      10.46192633    -153.11541591
C        1.98320994       6.34380223      13.00827085    -153.80229375
C        3.08199424       0.14727208       0.00360153    -155.07612030
C        2.51763940       6.78752584       1.36202593    -152.18304827
C        1.04850386       0.51485594       9.70612172    -153.98351076
C        5.83271747       2.56633351      11.13946011    -152.97974990
C        0.11310514       1.60048470      11.55289518    -152.80673762
C        5.81178423       2.52827308       6.30229893    -154.29527893
C        9.77165248       3.77600151       6.06930227    -153.73887358
C        9.75118410       3.79940431      11.95417124    -152.83822581
C        1.28896589       1.91991631       6.29038688    -153.50903208
C        2.69132280       1.19514547       7.80310017    -153.09890443
C        9.31530501       2.60010851      13.82213942    -153.99840340
C        8.08338183       7.20270413       1.43475622    -152.75223655
C        4.71346478       4.60407736       4.97048891    -155.74883181
C        0.63442380       7.64299940       8.23324114    -153.96015352
C        8.47566575       4.05833146      14.19376612    -154.35160619
C       12.19595666       3.71870748       8.42373215    -149.53894303
C        7.52156919       8.58891732       0.02622015    -154.51919718
C       10.48760986       0.88034648      11.46991763    -155.41133487
C        8.57440497       4.72666972       4.32935950    -152.93126912
C       13.15269712       4.01812105       2.44440939    -154.45044416
C        0.62327733       1.84908324       9.28521983    -155.71330446
C        6.81537388      13.33171188       3.85971993    -150.93325865
C       13.08199478       9.17969656       0.78293648    -151.49583186
C       10.22201488       6.31962950       9.70478524    -154.13042932
C        4.87119767      14.29257797       5.36134920    -141.91006809
C        5.79859382       4.70104430      12.35774255    -155.42384820
C        3.36266813      13.83405146       8.79806084    -156.06567229
C        4.92924709       0.05835899       0.65769877    -152.64341514
C       13.23016898       1.95345888       2.32668354    -151.76458826
C        5.09345897      11.74908072       1.77079787    -152.03595307
200
Lattice="14.526882050296985 0.0 0.0 0.0 14.526882050296985 0.0 0.0 0.0 14.526882050296985" Properties=species:S:1:pos:R:3:gap17_energy:R:1 anneal_T=4000 density=1.3 run_id=524 time=1 pbc="T T T"
C        4.74896848       8.10419885      14.46164182    -155.73873430
C        7.12287891       7.21248072       8.97459152    -155.82344892
C        1.45396657      10.14704164       4.04514105    -155.80846027
C       13.33509665      12.33192828       1.54631396    -155.44959248
C        3.77680048       0.28304032       4.63318923    -155.79868321
C       13.96578123       5.88146968       0.82029381    -153.77123906
C        0.99933036       2.10233037      10.61259915    -156.20454042
C       13.03597362       3.16739778       9.95424086    -156.26630195
C        9.51040103       5.98856186       4.87561384    -156.22912252
C        6.05003962       5.24925978      12.73786747    -155.87862192
C        9.48714349       2.20850735      10.64624341    -154.72761913
C        6.78758395       0.95446554      11.87770173    -157.49543730
C        8.18398049      13.24423100      14.42041453    -156.50649511
C       12.75986117       8.10342893      14.28184260    -156.18452883
C        1.28240845      10.42520238      13.42757478    -154.45285679
C       13.39413390       7.17649764       3.73936471    -155.30312798
C       13.77421524      14.10592206      10.81307013    -155.56016540
C        6.05926419      10.84940186      11.90518659    -155.53960082
C       11.21242864       9.68393917       1.20980164    -155.90494218
C       11.18874982      11.17191317       3.03462208    -154.66570814
C       10.30766537      10.44751567      10.21399604    -155.94975519
C        3.08087567       9.74583821      13.70561930    -154.44037751
C        9.01212898       7.74239233       8.74881471    -154.61765023
C        6.97053550       5.53597685      10.98486503    -154.76914198
C        8.77349589       7.18271514       6.05417978    -155.75217562
C        0.25570654      13.42834470      13.97609532    -156.63994524
C        6.03204081       2.00799280      11.09553082    -153.89528534
C       11.56351433       8.66076728      12.27842577    -155.89344699
C        3.93097428      10.97043984       0.08281688    -155.84452495
C        1.20625273       0.74691853       0.59118454    -157.26506462
C        0.37125626       4.82921498       9.48325029    -154.15998935
C        6.14321504       9.34063989      11.92200872    -156.69183142
C        1.95059709       0.21044222       7.79271345    -158.09496810
C        1.25348543       7.97620249       3.40523189    -153.36333486
C        6.68291776      11.71545099      10.06463064    -155.25259332
C        0.85046033       2.74517395       8.09453847    -157.03748082
C        8.22699458      10.31508861       0.04623674    -153.52858376
C       13.33682535       7.40053121       2.09511051    -156.08932015
C       14.32269220      12.85247004      11.15109615    -154.71706660
C       13.89574713       8.52566728       1.82691521    -157.02140396
C        2.32254338      14.47619776      10.47893731    -155.64334239
C       10.09595059       6.73486589       5.90234481    -154.39551135
C        8.59169196       5.46958900       7.11705363    -155.66692890
C        6.40472797       7.43183664       5.19505998    -155.31819639
C        3.88878822      12.69395271       9.32405019    -155.93513670
C        8.21204642       1.76869147       2.26815473    -152.99026014
C       12.85369030       8.86423079       5.43282146    -153.60320282
C        7.75301148       5.90106645       8.57383842    -155.29856497
C       14.21222979      12.26079014       9.29605689    -156.53743816
C        4.13391483       8.32178249      11.05302516    -154.57510399
C        4.17849783       9.46503358      11.08964743    -155.23650117
C        2.79793559       2.27273070      10.13374954    -156.54669134
C       14.18799895       6.46048215       1.97500225    -156.07286095
C        4.99216302       5.95965336      12.84488701    -155.72770396
C        2.69806328      13.67139397       7.32137423    -157.54193548
C        5.27148590       2.60452468       6.68749373    -156.32960884
C       14.03495824       8.90708509       0.46234708    -154.65288684
C        2.32241263      12.04194266      13.39753319    -156.70534599
C       13.81794115       9.51208615       4.24513263    -156.23123154
C       10.43662051       8.22690742       8.85991631    -156.44040673
C       12.45807972       5.83401036       7.81210683    -156.80712547
C        2.82852920      11.32841127       2.80005652    -155.68879315
C        6.36345710       2.66616224       5.68426726    -154.85900217
C       12.93732156       6.17033673       4.55762039    -156.26165187
C       14.16815522       3.51042105      13.02256531    -154.63332668
C       10.28596221      10.04846222       3.41187068    -156.89563120
C        3.08667190       1.46865325       1.38336302    -156.89512088
C       12.63812590      13.29016500       2.57892832    -157.01960627
C        4.46643516      13.05603524      14.07445684    -156.13336132
C       10.06827688       9.55868839       9.69878564    -155.20716474
C        7.66207320       8.92541802       3.77107689    -152.02858078
C       10.85480586       5.99318140      12.50331643    -154.91956415
C        5.07946958      10.42658243      -0.00136740    -155.75197763
C        0.88475249       1.62696721       5.79321887    -156.30455328
C        0.72057548      -0.14576855       3.90162998    -156.72679546
C       12.24520279       2.94005208      11.29691699    -156.25353936
C        3.87591740      13.16489970       0.73185560    -156.50556321
C        7.38790735       1.58303792       3.00196565    -156.31541705
C       12.40306642       5.21108313       4.98197967    -157.31835003
C       14.14048151      12.97639888       0.61728789    -156.29743437
C       12.41195687      11.10872123       5.13959634    -153.36547129
C        1.83204320      14.44726021       9.21758267    -156.09774429
C       13.87998547       5.36457416       7.83109347    -156.33776660
C       10.56772562       5.23484911      11.58568235    -155.97727321
C       10.58476565      11.12172279       1.20495112    -154.74953685
C        1.01767782       0.27935630      11.02482849    -155.34240059
C       11.28557149       3.01119022       7.08929276    -156.51635132
C        6.78072726       6.18249573       3.39490328    -156.41603763
C       -0.01581614      13.44969922       2.91255269    -153.88838521
C       12.59097164       7.05605526      10.81616435    -156.08127060
C        3.94323497      12.31849091       2.25939502    -154.40417356
C       11.58523202       7.63227856       7.69917485    -155.81343537
C        6.40041349      13.58372423       6.07855589    -152.77623280
C       10.34940111       8.28457915       2.75436947    -155.61454466
C        0.04215193       2.83949700       9.45713096    -155.86424336
C       13.85039421       2.56060992      11.62781031    -155.72627971
C        9.51563071       1.08620112      11.26687540    -155.71744059
C        3.71379740      12.90786105       8.01610784    -156.09646174
C       13.84637026      11.23448045       6.48542480    -155.75741594
C       11.65546949      12.87090466      13.60011056    -156.69367978
C       12.64939876       0.09810309      12.54683897    -154.43752943
C        5.89991882       4.82378193       3.16148534    -153.62765133
C        2.77007303      10.53955799       3.98409909    -155.27372204
C        0.37298060       4.16357872       6.22295310    -154.83712700
C        0.88594950       2.93820716      11.70934970    -157.28436019
C        5.33239712       8.27474445      10.44369510    -156.79335822
C        2.11646503       2.63439195       8.79813348    -154.94695161
C        0.19943521      12.91932276       6.63612668    -154.84495717
C        6.08442475       7.16557342       9.88669086    -156.46633062
C        9.52982347       8.29069496       4.99303463    -157.13102510
C        0.02041071      12.74199311       8.16351211    -156.22086785
C        9.77763756       5.67082989       3.50318666    -156.37474685
C       -0.02559520       4.90524868      13.26362439    -157.66908316
C        9.61175509      13.57476115      14.19234248    -154.77932341
C       11.21024961      12.84086307       0.24730855    -155.02954420
C        1.09065361       3.05758908       6.07463363    -156.04016351
C        6.45846291       1.50101914       4.48776062    -157.32984720
C        4.42745953       7.10005718      13.92706709    -156.18598152
C       12.75461697       8.04218359       6.97521316    -155.67032377
C       11.02635381       7.50065048      11.51637459    -155.64795024
C        3.94680858      11.07262193      11.47404326    -157.05149520
C       12.28644461       5.33687140       6.31906295    -154.41830186
C       10.39617767       4.71687860       3.05080503    -154.37336814
C       12.41757878       5.75013214      10.38884159    -155.97678132
C        0.68649396       1.66103275       3.19316847    -155.31793088
C       12.16269010       2.14207592      12.77602959    -153.30409923
C        9.71020377       9.84786050       1.85014370    -155.11550745
C        8.77394622       2.63205312      13.01524376    -156.30005021
C        0.55607452       9.17400203       3.85446120    -158.19484862
C        6.96765918       2.74617631       3.73847857    -154.11361689
C       10.39914115      11.85650701       9.90611330    -152.66394985
C       13.46634703       7.11747491       9.51756279    -157.55726630
C       11.74648041       3.84063160       4.32813924    -155.88123509
C        0.53247560       1.15395014       1.92469566    -155.53194358
C       12.53502862       3.04339632       6.82844807    -155.74126153
C       11.93091370      13.56393862      12.30233702    -156.09444955
C        6.18964296       7.34971618       3.89003753    -155.75456764
C       13.12669400       7.53878355       8.30696507    -156.81857362
C       11.64408041       9.31594419      13.58802419    -155.32562709
C        7.60467748       2.32928385      13.21180700    -156.06661133
C       11.08924068       8.01965240       1.28126083    -154.50357485
C        0.83290024       8.85571804       2.13286588    -157.78753761
C        4.06759961       1.89558378       9.70741461    -155.32165331
C       13.01807650      12.09299012       8.74339619    -153.74820179
C        9.69358502       3.61998279      13.31340801    -157.63672224
C       10.26004625       3.75007102      14.35372162    -152.58691941
C       10.58944330       8.78154378       4.24978124    -155.86586359
C        9.67635613       4.94429694       7.68618782    -157.44650094
C        5.54867334       0.53997728      12.46348372    -155.33353110
C        2.50389697      12.63631004       0.18137974    -154.84233868
C        4.56883515       2.76663016      10.57446609    -154.82607290
C        4.58567180       1.68481325       7.44572434    -154.83628491
C       12.54429677      10.33750359       4.15484806    -157.01416870
C       13.13323109       6.82262279      13.61266178    -155.70563906
C        0.10188908      10.74123470       7.16077955    -154.07233535
C        3.29821235      11.32443090      12.57011104    -156.19502699
C       12.93951512       4.69802271       9.64952498    -156.62734292
C       10.24483661       3.88700141       7.28812220    -156.19292244
C       12.95699096       2.88360061       4.04012927    -155.18588225
C        1.54751969       1.31845255       7.22798091    -155.78571250
C        2.18212653       0.60704499       1.42391481    -155.62018445
C        7.82063411       5.60050526       1.12089712    -152.57037859
C        6.36894826      14.08433512       7.83372283    -154.46669312
C        1.84529172      13.90713621       4.31679374    -156.12713147
C        5.68826215       0.96484355       7.40563015    -156.55482780
C        5.40540923      13.75575157      13.07699753    -156.77259498
C        8.52806422       6.28341398       9.47428720    -155.90425392
C       10.83756245       3.69051080      12.03007420    -155.46855105
C        7.02832344       5.18365638       1.89394225    -157.42757938
C        3.54078223       2.53942972      14.31908953    -154.24685851
C        2.19409668      12.56101721       5.18996104    -154.34187839
C        7.08781102       6.89771224      11.45874645    -156.05138963
C        1.34832999       8.27382925       1.05576730    -153.19532814
C        0.50831885      11.86673394      13.44531210    -154.77401625
C        8.11937944       1.23845592      12.14797437    -156.69892969
C        6.35433422      12.26754514      12.99586490    -156.13280326
C       14.11837160       6.18662137      13.17887456    -155.82929723
C       12.10257787      14.36513975       2.63555410    -153.71590853
C        7.64785138       8.06013882       5.74597745    -157.01474071
C        5.60695519      11.32669710       9.54969625    -155.70702448
C        1.58568181       1.31000662       4.49566324    -156.88508756
C        7.16512309       8.32361288      11.59298937    -155.76706366
C        7.58694016      12.92700748      13.27706175    -156.57007764
C        8.25401459       8.84528774       4.84744622    -157.89372560
C        7.77053090       5.29281137      10.29263005    -154.57043319
C       -0.05272575       6.06186450       8.98964137    -156.51391773
C       11.07605027       5.95799730       8.06882589    -154.72765166
C        4.05435109      11.72961470      10.12452497    -157.08321821
C        0.63549879       0.42371283      13.72004449    -154.67755758
C        0.87536812       4.33881650      12.02856340    -154.19963127
C        2.87303957       0.69704193       5.34676421    -155.45204502
C       13.06588447       2.67913475       5.56292421    -155.21263859
C       13.65428130      13.73661967       5.36274378    -153.23682930
C        3.39342154      13.14419889       6.14940349    -155.57622980
C        5.29435122       0.58672479       4.66847503    -154.84987447
C        6.58083736       3.54949836      12.96845267    -153.66398804
C        6.08321902       9.30397404      14.46267323    -157.17776846
C        3.34388487       2.74344526       1.23052715    -155.35650228
C        7.29603935       9.54034094       0.66154985    -156.78153919
C        0.35301050       4.28750755       7.77202717    -157.23936164
200
Lattice="14.526882050296985 0.0 0.0 0.0 14.526882050296985 0.0 0.0 0.0 14.526882050296985" Properties=species:S:1:pos:R:3:gap17_energy:R:1 anneal_T=4000 density=1.3 run_id=524 time=2 pbc="T T T"
C        1.12978903       4.58151711      10.22861008    -157.04925744
C        5.83929814       3.50251842      14.01730808    -154.72814493
C        7.27754663       0.20918274      12.08642397    -153.73283009
C        3.68467100       9.86218401       7.81444566    -155.54444435
C        8.15604529       9.22169378       8.25553991    -155.01219145
C       10.98933931       6.93661523      13.96320997    -153.89229142
C       12.71789301      14.46806270      10.16185906    -155.18533817
C        8.03297355       9.68694623      11.59249546    -157.26093328
C        1.28991885      10.22053314      10.06211749    -153.61204008
C        4.78747925      10.99058863       2.08122281    -156.04510327
C       13.57497905       9.97189102       0.05916523    -157.42177244
C       10.67362659       8.13540259      13.57240779    -156.44091446
C       13.76259373       2.76597645       3.48482468    -154.84518100
C       10.54981397      10.49071861       8.98502182    -154.16644834