200
Lattice="11.385853889763778 0.0 0.0 0.0 11.385853889763778 0.0 0.0 0.0 11.385853889763778" Properties=species:S:1:pos:R:3:gap17_energy:R:1 anneal_T=3100 density=2.7 run_id=304 time=0 pbc="T T T"
C        5.62794788      11.20508069       4.10652454    -154.84302794
C        2.03231799       1.85555261       0.70921004    -154.99131052
C        6.54339330       2.34655617       9.77713521    -154.06084038
C        2.27661287       7.05907001       6.52862585    -154.37753373
C        4.81188957      10.35039018       7.36614649    -155.82614419
C        0.87417740       8.72569714       4.31688957    -154.37956125
C       11.10637672       2.72978124       6.02802401    -153.53373405
C        3.97195513       7.48970578       7.50079560    -155.37952149
C        6.31021101       9.88145240       3.62787462    -155.99605390
C        4.22146473       9.81730450       6.20618985    -154.63556598
C        6.18095880       4.44283989       3.00046853    -154.98415876
C        3.94975271      11.04140904       6.34521113    -155.26937709
C        0.37193030       3.57497595       8.75580134    -156.16354796
C        1.50453812       3.18009176      11.14242433    -153.23121766
C        4.46993822       9.06956132       0.50298034    -154.31436597
C        8.47219111      11.21053451      10.15250404    -148.82391829
C        2.28378596       0.14681148      10.70562882    -154.09548645
C        0.31116514       6.23433568       7.23775960    -152.12601674
C       10.00243848       1.16459068       2.02948291    -153.76351571
C       10.16121422       2.51703656       3.50208371    -156.13902083
C        0.91255911       6.98649658       5.90908738    -158.01856533
C        6.10231671      10.36742342       0.62521887    -151.88450502
C        7.11400675       9.57475165       0.66126876    -152.39164688
C        5.61591303       6.30865115       8.88049921    -148.99592318
C        5.85063241       6.57036639       8.06586414    -143.10687352
C        5.36895386       2.26070683       5.90438502    -111.01835993
C        1.70381333       9.48497420       9.05742400    -154.94084021
C        1.13910914      10.02901307       1.60160252    -155.74842899
C        8.48954315       7.14800491       3.41153202    -154.83531634
C        2.05352984      10.62043986       8.08221423    -153.95682055
C       11.26772566       4.48292948       8.05801929    -155.26805833
C        6.10426369       7.65831889       8.80046805    -154.51285707
C        8.56417742      11.19707643       1.99028142    -153.99893426
C        5.58459055       2.95672408       4.13221102    -151.90853970
C        6.08334787       8.45422423       9.58801617    -153.06012918
C        4.53309555       1.75990005       5.16004621    -150.81243253
C        6.22553442       4.72001712       4.48631108    -154.09106332
C        5.84904977       9.74212371      11.20217729    -151.45074501
C        3.20740643       3.29111522       7.56502320    -153.04433355
C        1.99691937       9.80799087       3.44276341    -153.75395700
C        1.02175742       0.68979602      10.87098558    -152.90564190
C       10.28479628       0.93557220       7.02073384    -153.54138670
C        3.94694041       1.29868188       1.93971684    -153.35145542
C        7.65489174       8.54292003       3.56035651    -153.13678145
C        4.69601574       2.78969360       5.09786806    -149.06598761
C        5.31639676       7.05313798       7.53332498    -147.70275739
C        9.02843561       3.28875835       3.86786565    -155.11571270
C        0.75682796       3.11458895       6.06686116    -154.53508454
C        3.90639538       9.29738087       8.18198846    -155.06502620
C       10.18967885       1.23356618       9.87762675    -155.31641387
C        5.69117352       7.81176604       3.29743437    -118.48537901
C        7.18523666       5.07412856       9.37100180    -152.88089475
C        1.46362875      10.81213210       5.85247692    -152.51160776
C        6.31779399       6.89726564      10.21403319    -152.79990928
C        8.82988909       0.78809693       8.05988657    -151.69712628
C       10.15217385       9.08437431       7.75763769    -151.89263376
C       11.29448241       9.19364435       8.78911635    -155.16705927
C        2.59113570       0.93807936       9.77393578    -154.17139082
C        5.31760366       8.05739306       3.39141321    -121.55698124
C        5.70032775       2.46112063       5.99427634    -109.14089312
C       10.96727574       6.86844804       6.30606656    -153.04259451
C        4.00215041       5.06490602       7.91232590    -155.14797956
C        2.69816273       8.97803044       9.11321468    -154.65901129
C        4.35578365      10.50204975       4.97942103    -155.73112048
C        1.93154180       8.68006264      10.62843273    -153.59665246
C        7.49386161       4.77355340       2.46852144    -154.74319871
C        5.45106864       0.91036164      11.00137638    -154.52574306
C        0.05964878       7.93408427       5.20280009    -154.98697934
C        5.25687151       4.82423184       6.62094235    -155.08801827
C        3.34770292       8.30652693       3.46084415    -156.33133580
C        2.84258090       1.70561230       8.84226552    -152.32719124
C        0.75793466       5.83967922       2.79469199    -154.26430197
C        8.52848277       1.54176986       2.92485508    -152.55359926
C        0.65862383       8.89354740       2.06206923    -154.52034894
C        3.29799228      10.62756741       1.97965842    -140.00599855
C        9.54340640       9.17187460       0.96881320    -154.63974817
C       11.28192382       5.55005725       2.16712650    -153.96453481
C        5.75994408       3.38945484       2.52658929    -155.28397446
C        9.13203550       8.85735177      10.91066528    -152.69506339
C        6.58134235       9.33576258       4.80242793    -155.04453374
C        9.51027356       9.18582227       9.93303032    -152.39894081
C        0.64112491       9.41616948       6.08759480    -154.22849591
C        1.59847141       0.79242924       2.14785025    -153.93215959
C        4.48964713      10.88629955       2.02831017    -151.21334522
C        6.81626668       3.04220907       8.59727610    -156.30717317
C        6.37838951       4.26499285       1.98927946    -152.28512058
C        9.46549300       5.13747945       4.28917640    -134.99631956
C        0.51387433       2.59439205      11.34221191    -155.89536216
C        9.11224688       1.98092225       4.99277663    -153.48217423
C        9.54396431       4.94723322       7.15170532    -153.85904332
C        8.35433613       3.79551994       1.72551477    -153.81809583
C        5.42627025       9.89289518       2.42119044    -155.38954414
C        4.10635375       0.41542427       3.98397859    -154.92004823
C        6.22407703      10.37149955       8.84515752    -153.12987716
C       11.15843284       2.93550085       2.11690350    -155.55391881
C        4.63469153       1.65951098       6.65389301    -152.54387885
C        8.03363079       7.30170256       5.45244632    -155.37843978
C        4.78748969       6.71426081       6.71624195    -152.44181078
C       10.38479823      10.49639098       8.82911486    -153.76994666
C        2.38645220       4.29362827       2.60984266    -152.05299400
C       10.73405930       8.09444263       8.15696236    -153.04299627
C        9.40744792       2.00115491       1.62649200    -151.19029299
C        7.22816133       7.36367576       6.19693315    -153.98979197
C        5.20241297       4.12985415      10.98820294    -153.17412924
C       10.90826286       1.90563898       9.01289392    -154.86919050
C        8.04976454       2.45067981       6.41015604    -154.02658958
C       11.33984365       1.52890385       5.28669106    -154.41320385
C        9.07461664      10.56955648      10.45743998    -150.05716519
C        3.41104242      11.33556257       1.83272397    -141.98478258
C        6.61658157       8.78694165       5.94880124    -154.85791476
C       10.33575936      11.33476556       0.00011797    -154.05529380
C        5.86028761       1.95182000       2.06029303    -155.82253051
C        3.05109004       3.83486945       4.60514524    -153.53509792
C        1.06614517       2.67433213       4.66815455    -154.60638061
C        8.46584919      10.50679765       7.39255028    -153.86984760
C        9.20853705       6.27201147       1.86714341    -153.15470703
C        6.69043022       4.40703138       6.99820123    -156.12576528
C        3.66367175      10.80026804       0.60037266    -154.06417003
C        6.49210003       1.95278780       8.45079709    -152.48912034
C       10.84856683       5.93330509       4.79688302    -154.78859157
C        4.31898457       6.59817064      10.67528552    -157.13718664
C        9.08726632       1.51529775       7.41384183    -154.84742058
C        8.28728484       0.52157914       0.09082040    -152.66276091
C        2.75309947       9.75511497       0.54192338    -153.47778568
C        7.13484287       3.51497250       0.02234952    -154.52947066
C        1.13812768       4.64455168       8.91215189    -154.72925698
C        0.66432586       7.19925264       2.49010902    -156.04376586
C        8.87060491       8.26091520       5.53832982    -152.80435696
C        1.25184048       9.80225240       7.62788450    -153.57691862
C        1.91299424       0.15123147       8.58956788    -153.55393809
C        7.82336822       9.56492566      10.60676545    -150.40494854
C        7.29177409      10.07223377       9.87704608    -153.27308593
C        3.58681724       5.98745621       6.21485449    -154.65584913
C        6.51947162       9.20456339       1.66068372    -153.58211736
C        3.06046060       5.01429590       3.10187095    -153.34765048
C        6.72673971       9.26078673       8.69282618    -154.38421614
C        1.76409004       7.69851095       1.26468372    -151.00692758
C        0.77129482       9.88112221       0.28972330    -155.31306280
C        8.57568852       2.96263334      11.08235257    -154.08623374
C        9.25564033       1.19265681       3.71867681    -154.44747645
C        1.15169051      10.34793084       4.81812902    -155.48490178
C        2.23428027       0.03707382       7.16270405    -153.34820599
C        8.10552107       8.51103964       0.69496292    -155.30628881
C        2.82500114       6.19555546      10.39369058    -154.54597588
C       11.16990978      11.13324734       1.58709695    -153.98701494
C        7.65724862      10.49339650       3.39701505    -154.62250429
C        8.80481744       6.80070221       9.43993176    -152.24007679
C       10.79997201       0.21728080       3.83680504    -140.35865728
C        0.23598776       0.16809847      10.41806769    -153.82405571
C        4.59370245       0.29137994       7.76583550    -153.58988477
C        7.53781101       5.32218077       7.16601734    -154.89047762
C        9.58452072       8.46475615       8.33913602    -151.19476544
C        2.88296652       7.51745310       2.56431063    -154.76698169
C       10.33391485       2.87484841       4.60785507    -154.09467086
C        5.96133706       1.14563323       3.37478986    -154.79255417
C        0.43731015       7.29405126      10.81982894    -154.43138887
C        7.53118444       4.10037618       8.84696787    -157.66619830
C        4.85110245       3.60065105       8.04506218    -154.77918362
C       10.92592232       1.64566578       0.50106183    -154.31839312
C        9.09572601      10.60857580       3.09606416    -154.12592409
C        1.18391247       5.82344299      10.49571922    -155.21679904
C        7.50690980       3.28998802       4.84077548    -154.17618952
C        2.33255157       4.99503103       4.07703517    -154.61120927
C       10.05734107      10.46131117       4.97469590    -151.28941744
C        7.05096328       7.57282251       1.74661276    -153.53978235
C        8.54408139       4.73801815      10.20657546    -154.91611224
C        8.20515868       1.76373708       4.40350176    -152.85393909
C        7.75427886       9.89637926       2.05715054    -154.51841360
C        9.14748610       8.26895362       3.31411465    -154.61459012
C        5.88034949       1.91992823       4.31643414    -153.36523054
C        6.61030796      11.34336188      10.65639639    -154.71828568
C       11.38480639       5.75681297       5.97243827    -154.32897255
C        8.02273453       9.82683446       0.30710950    -149.34943008
C       10.93628345       0.32534850       4.53494006    -142.53094468
C        3.54837859       7.14942815       5.07567703    -153.73686278
C        0.03146276      10.44752290       4.59276881    -155.60581208
C        9.63628081       6.17125805       3.21677698    -156.67356636
C        5.10451740       0.28167350       1.98477066    -149.83292062
C       10.38592543       6.31490199      11.21903974    -152.43445096
C        5.18072292       5.61165472      10.22717247    -156.41131311
C        3.11914329       0.19363466       9.10952566    -152.58477383
C        8.81698892       3.99223334       8.87030887    -152.84574746
C        3.80775973       1.10606284       8.03547530    -154.87106477
C       11.07568046       1.58147233       2.87785427    -153.79298013
C       11.12007390      10.26640812      10.78330312    -153.15825485
C        5.09449785       1.76980574       0.86713525    -155.94009679
C       10.61916465       9.66056684       0.02913902    -151.49247318
C        1.74772857       8.92353774       5.78818100    -154.57920458
C        9.49819317       4.65269256       3.90966312    -135.86899402
C        3.76251235       6.41176144       0.70302069    -154.00164824
C        6.80611049      11.28598857       6.67012924    -152.24556315
C        9.00314763       8.52611451       2.09202541    -155.24348152
C        1.59464577       3.95348727       5.30876823    -155.84490860
C        1.04752475      10.22835660      10.23424308    -154.46247176
C        4.50311660       8.98169668       3.30445945    -155.69462769
C        7.77319077       7.34248668       0.50346993    -152.15906797
C        1.96057572       8.25624700       4.54244334    -154.14448976
C        4.10077468       8.28490520       8.88753567    -155.73602443
C        1.92450534       6.85887254       1.78921862    -153.94098552
C        0.00954829       4.04892350       1.39066819    -155.33554234
200
Lattice="11.385853889763778 0.0 0.0 0.0 11.385853889763778 0.0 0.0 0.0 11.385853889763778" Properties=species:S:1:pos:R:3:gap17_energy:R:1 anneal_T=3100 density=2.7 run_id=304 time=1 pbc="T T T"
C        0.33845248       5.96438847       9.45419823    -155.61625956
C        9.31069093       1.28607774       5.54197329    -154.84069787
C        2.08012719      10.52356902       4.37200849    -156.13043372
C        4.88995099       1.64907015       8.78680502    -155.31827562
C       10.44547345       7.49847288       2.39501437    -157.09022312
C        4.61721424       8.83533153       4.25728463    -154.90417417
C        0.76734393       0.38298141       1.34153823    -157.05238976
C        5.34708163       2.07603967       2.15321299    -153.40082689
C        8.22534580       6.35981918       5.47200722    -155.80419319
C        3.21772201      10.84959156       9.06621388    -157.20619928
C       10.83275188       1.80641126       3.28957813    -155.22223322
C       11.12827172       7.77777926      11.44118914    -156.50000132
C        1.44678907       3.91227048       6.96560354    -155.49681398
C        2.27985784       9.60105298       6.41219411    -154.95869151
C       10.46137948       5.00088336       4.33089417    -153.64626486
C        4.56039883       4.46711453       8.97308898    -155.94057701
C        3.10189372       1.04605142       5.54109658    -154.48100923
C        7.84582113       5.88316179       7.99058087    -157.50920156
C        6.52242056      11.29412945       7.80594787    -155.50248097
C        8.37575293       9.20734154       9.47832486    -154.41128764
C        7.49377053       1.82475387       8.20061572    -155.49383020
C        8.54486701       3.52198618       4.52390717    -154.53260563
C        1.07675109       8.18815960       0.75859959    -156.59180699
C        5.60628060       3.04239125       8.25230750    -154.78337804
C        6.85427266       7.76347863       3.56319159    -154.15224659
C       10.08671658       3.74816617       3.93355064    -157.58847822
C        7.22426736       8.55111785       7.09758835    -156.22152964
C        8.08718984       6.55742067       6.83511026    -157.04639453
C        3.92288210       7.19302458       0.87011606    -156.26282848
C        1.46034962       0.73530983       8.74462043    -155.75339008
C        3.60627566       0.57010223       9.46833946    -154.87345712
C        9.53344378       9.25501411       4.21388175    -155.90417544
C       10.67431772       3.25473742       2.82078837    -155.60289486
C        5.02357537       0.91401536       1.30414709    -156.12274614
C        8.26304436       9.87850347       7.52166587    -155.45543614
C        6.89571716       8.52202699      10.59564147    -154.48728117
C        0.50767473       0.22983143      11.41192750    -155.74239980
C        3.58315099       5.02151453       9.60631324    -156.04844474
C        8.68629070       9.72091186       3.11664979    -156.80273117
C        3.03648199       0.05426692       1.38004519    -154.16525526
C        3.21324737       1.94428257       6.36756156    -155.76729782
C       10.25424803       0.98501527       8.12170037    -155.62763034
C        2.35769154       8.51165448       5.45303839    -156.99127862
C       11.46771818       0.24661646       8.52313142    -156.96043410
C        0.64942178       1.61989959       2.08123162    -156.93134238
C        3.64353017       8.41102630       6.42742838    -156.15969499
C        1.68995675       8.72639168       8.31360893    -155.55292931
C        2.14797549       1.32984496       9.64663055    -157.79498990
C       -0.28176117       1.31492949      10.84355705    -156.30530605
C        2.73521229       9.76916511       1.50054168    -155.77527215
C        0.57009767       4.46635168       0.78182104    -155.91451494
C        8.03190014       2.43699401       9.82528598    -155.53058663
C        0.31961800       3.04809556       3.74281482    -155.48823953
C        6.85098214       8.54602837       0.94448277    -154.86330297
C        6.67798548       1.05726420      11.31353095    -155.31556953
C        3.37825116       8.46451704       0.77649474    -155.84294096
C       11.45667390       5.76036536       5.82439940    -155.77419333
C        8.74684068       3.96203805      11.70420236    -154.22421121
C        4.77690084       5.64290889       4.69903299    -155.59358000
C        2.87589590       6.66278537       3.44008774    -155.54819426
C        5.03287761       7.69648427       0.96783743    -155.23700964
C        2.68656054       1.71271707       0.35117275    -155.38079796
C        4.95366622       8.04686115       6.08526070    -156.28803060
C        1.97418182       6.47937064      10.45326137    -154.26213293
C        0.80753144       3.17821310       9.04218973    -157.66227161
C        7.93426644       3.30203426       2.13573570    -156.17498446
C        6.36464678       2.05463426       4.71958445    -155.58928693
C        9.54853003      10.35435246       5.64213465    -154.31806538
C        8.53376581       2.11152938       2.42185082    -156.86711972
C        1.50692915       4.72445760       3.30212535    -156.51282472
C       10.90567827      10.87809035       9.59364079    -156.60185582
C       10.72860547       6.62490463      10.33834395    -156.00510608
C       10.78868862       5.73679664       0.56749715    -155.21373451
C       10.63165493      10.00698144       7.37497053    -154.71751258
C        3.58224012       3.83366255       5.45402896    -153.85269690
C        1.59197009       2.51372328       9.94367609    -154.85427834
C        9.02298179       5.23676409       8.73432762    -156.28920813
C        4.12736065       6.20778387      10.32858627    -156.62503182
C        3.87906933      10.94228379       8.01808910    -154.01711869
C        1.86616422       5.31204736       1.95129625    -156.79670752
C       11.46817361       8.73397466      10.32683285    -156.06658750
C        8.09891727       8.18059939       1.49143300    -155.29756915
C        1.79877136       5.92438997       4.26000585    -157.10750324
C        8.12474039       7.69823769       6.09898065    -155.58722541
C        9.63266011       5.22558319       1.15961506    -155.62924016
C        2.69114904       5.69594420       8.05036799    -155.41475137
C        7.66978444       6.32816651       4.03561344    -156.73480406
C       11.07450772       9.43322549       9.38153371    -155.74757348
C        5.62034213      -0.00700622       3.19193305    -155.53629225
C        0.23441651       2.23439412       0.33189536    -153.97797433
C        7.03273453       3.24331741       0.93639881    -155.09793671
C        4.34420424       0.81572698       7.38873602    -156.08229278
C       10.68040915       1.26575399       4.88883517    -157.60179681
C        4.97851016       7.99941630       2.26430476    -155.43596819
C        3.69511948       5.93013982       0.61284245    -154.79937599
C        7.79516546       2.42235180       6.89888243    -154.19684441
C        3.68971120      10.84675648       4.72105323    -154.68497749
C        2.10708889      10.74705056       5.81053143    -155.60435060
C        3.54823058      11.00406344       2.93156134    -154.55486502
C        0.45501629       8.94694706       7.61586104    -155.68309329
C        9.64960226       0.80588732       0.74608768    -156.23878231
C        7.63553579      11.33539179       0.56779090    -156.14928728
C        9.79716292       3.50504403       8.36844321    -155.49409254
C        6.25091349       4.61035996       6.69161435    -153.63112417
C        6.20522205       8.38918823       5.82928393    -155.93920258
C        7.96412015       0.74771130       3.53858676    -155.02512354
C        7.46033027       5.19693638       6.72573775    -156.98381872
C       10.10688092       9.45798972       6.27741975    -157.46345871
C        1.62815433       4.41232580       8.07780790    -157.07004231
C        9.08800640       7.43055626       3.27931948    -155.46964604
C        5.59539572       0.29466590       5.05595673    -156.04013788
C        9.40443067       7.66601572       4.69530981    -156.60318832
C        4.86526645       9.30364309       3.00506842    -157.45433503
C        3.46091246       2.53496928       7.64273165    -154.88368399
C        1.56064761       7.05736213       2.08701563    -154.39640111
C        4.48134685       7.43235523       9.60055200    -156.35888795
C        5.25095087       6.23719353       3.53801747    -155.01004938
C        6.40138893      11.69133635       9.01947495    -155.60904279
C        7.24427231       0.91246575       9.75916833    -155.91239496
C        9.23323297       2.70078147      10.70127942    -155.94093246
C        4.13449958      10.10836108      10.03307782    -156.70233141
C        9.31110082      10.98468471       9.52317374    -154.25016170
C        5.43560665       2.66200125       4.16328302    -156.85892229
C        0.60910675       5.52894788       8.34252900    -157.29391882
C        3.64937112       2.34099987      11.23499133    -156.24531238
C        7.09279491       6.39593511       9.13701112    -156.47278700
C        6.38773729      10.62071312       0.09044137    -155.14719859
C        2.93763000       9.63792037       9.85543573    -155.85535800
C        4.48543437       0.43083502       2.29692523    -157.21637867
C        4.42633040       0.13791685       5.74119158    -156.90219579
C        6.98206748      10.21161939       8.85336672    -155.71528909
C        6.39730141       3.33200183      11.07668241    -155.69778292
C        9.69050025       0.96377496       6.95613050    -155.33687543
C        7.19784080       5.11753143       3.32470349    -154.71963910
C        0.73087504       1.88028268       8.17012440    -156.95518444
C        1.32200011       2.38005335       6.71069704    -156.83172647
C        4.81561275       3.20536836      11.04157983    -154.87821914
C        5.89315857      10.27917166       2.64946543    -156.57529973
C        6.62919710       7.44601825       2.20279838    -157.82742323
C        1.93397837       0.71645827      10.89978040    -155.91004039
C       10.79529242       3.30260355       9.39635810    -157.03265938
C        4.09571936       6.74036857       5.62966714    -157.03614635
C        4.56010280       2.74886393       5.44897364    -156.04489405
C        6.80819411       6.16542850       1.99249027    -155.75102943
C        7.19752199       0.83077680       2.35296641    -155.43141081
C        1.44228027       6.30820710       5.35859273    -156.05902129
C        9.09624976       9.30068277       8.22711060    -155.51757506
C        2.28158849       7.72075891      10.96540846    -157.32035425
C        4.69224702       8.78831934      11.12838558    -154.17998313
C        9.69399570       1.78608751       1.75764565    -155.98464583
C        1.90826911       8.62809760       9.75537684    -157.26387329
C        0.94968155      10.63211036       2.45882069    -156.26006268
C        0.57283142       7.61372050       5.64635880    -155.08545854
C        9.57234924       8.12205333       1.10303306    -155.86804164
C        7.38259905      10.30801203       2.85495732    -155.06045087
C        4.80434075       3.74685680       3.63763230    -155.46218400
C        7.07421320       5.79151705      10.58654417    -156.30903136
C        9.86717454       9.51750358       1.63070477    -156.26307780
C        9.43097109       5.11079101      10.09812520    -154.91515539
C        6.05544115       7.54360641       9.20091991    -156.28948543
C        1.66182230       3.47171764       0.73108682    -155.68581780
C        5.72305391       5.17219492      11.05424090    -154.76741817
C       11.25326562       4.35135455       6.16395972    -155.74561367
C       10.83295682      11.13003652       5.24586139    -155.88812892
C        7.18730888       8.45629646       8.34646851    -155.73962019
C        8.23192682       6.09829750       0.10466879    -155.70079701
C       10.19767172       8.06912049       5.94735524    -155.26371378
C        9.05371221      11.03023952       1.11795308    -156.91172265
C        4.52578583       5.56895777       1.85170419    -155.48560227
C        1.81105669       1.54903404       2.72823277    -154.53468857
C        9.62295936      10.49275890       2.63591626    -154.88026506
C        6.75367864       9.58905229       4.89616766    -154.67571431
C        5.07074696      10.82426942      10.94776039    -156.14825076
C       10.71135591       5.35634972       7.45795063    -155.27827744
C        7.72085000       2.39076744       4.26356962    -156.64583854
C        7.66812211       7.54418709       0.06802638    -157.09034770
C        2.68288291       4.30035731       1.42710293    -155.35633053
C        1.99178435       3.33317457       3.76389004    -155.94548779
C       11.00807126       9.06734108       2.65290396    -155.01348266
C        8.36681503       4.41276985       1.52778803    -156.75186701
C        3.21222264       7.56582021       4.53716030    -156.68989994
C        4.57608854       3.82856169       7.54584942    -155.83573546
C        7.15983482      10.97903733       6.82692383    -155.61449876
C        4.96588324       1.13348680      11.20020754    -155.74649058
C        8.53875281       3.22059125       7.97100859    -156.41259868
C       10.63456971       6.31589255       2.78173489    -154.69570311
C        7.27433096       5.44058227       1.02268878    -157.12762309
C        0.42524115       9.85036902       4.97513994    -155.44136951
C       11.02721088       3.22303920       4.74821988    -155.74431324
C       11.04792175       4.67352867       2.18215583    -154.81513726
C       10.41121341       2.31869499      10.27384308    -157.74343341
C        3.21419240       6.71942999       7.08340158    -156.79878076
C        3.80621125       7.80778099       8.03599905    -154.90313648
C        0.43343213       2.00655180       5.55883574    -155.40126640
C        5.05296226       4.37134811       2.33200505    -155.42330737
C        1.87937181      11.26052980       3.24300999    -157.23093378
C        6.43381584      10.69338903       5.66046588    -158.13890866
C        3.02070119       2.66411902       4.33327382    -155.60695578
C        1.04929297       8.59791371       5.08139273    -157.06287313
C        1.18630350       9.28130404       1.71026911    -156.70049565
200
Lattice="11.385853889763778 0.0 0.0 0.0 11.385853889763778 0.0 0.0 0.0 11.385853889763778" Properties=species:S:1:pos:R:3:gap17_energy:R:1 anneal_T=3100 density=2.7 run_id=304 time=2 pbc="T T T"
C        9.17720318       6.23531487       3.63598135    -155.06525098
C        9.89784803       3.86155789       5.71334178    -157.10612491
C        1.55564922       8.16797248       7.62840825    -154.81459703
C        4.84133339       5.10657824       3.37303644    -155.33335962
C       11.06470449       4.94792775       1.47537895    -156.53239860
C        0.48310633      10.00391865       6.34911648    -156.15731454
C        2.77046290       5.05404391      11.17816453    -156.02015928
C        1.43427601       8.25517673       9.61928173    -156.15084416
C        3.94330832       0.83012667       5.39688336    -155.56544655
C        5.94469095       1.47135974      11.26902364    -155.69705817
C        4.18688589       3.07348601      10.17331738    -156.76508819
C        7.44097432       8.79806563       7.64121733    -155.07175302
C        6.96519364       5.03025886       9.81017696    -155.35760354
C        3.44069119       8.97887299       2.19105956    -155.92928088