200
Lattice="10.758957740055605 0.0 0.0 0.0 10.758957740055605 0.0 0.0 0.0 10.758957740055605" Properties=species:S:1:pos:R:3:gap17_energy:R:1 anneal_T=2700 density=3.2 run_id=205 time=0 pbc="T T T"
C        0.47201592      10.43277842       4.47342400    -153.44470730
C       10.60085486       3.48535360       9.57612869    -154.11219475
C        9.77804204       1.05893320       3.11805354    -153.89118563
C        6.91504035       5.34590016       8.27050765    -154.57181421
C        8.68801976      10.30579044       3.07296275    -152.03269043
C        7.63643923       5.42417158       9.26967053    -154.44693229
C        6.00609133       6.93225469      10.01874145    -153.66164459
C        4.59541982       7.23758315       7.57261709    -153.54709669
C        6.42692796       7.04503008       2.20235865    -151.32277646
C        3.37371866       0.87550158       9.68609599    -153.53894695
C        0.49349725       8.64537125       0.28131554    -154.84541769
C        9.91517572       9.14709373      10.42153531    -152.84679210
C        5.49789196       5.02703693       4.97979435    -154.91279473
C        2.23626013       0.07455119       1.30003714    -155.20914126
C        1.62827142       2.24424327       7.98620219    -155.77039659
C       10.02444370       0.00751494       4.84308027    -154.75520612
C        4.31627867       2.33020734       7.07264833    -154.28733714
C        8.70568597       8.03977104       7.57659791    -153.26624368
C        8.25257246       9.40874082       8.67475396    -149.69750699
C        7.62249562       3.57102718       1.27530230    -154.19204607
C        8.80572276       8.94168371       1.49103016    -150.82483559
C        4.62826692       3.66038033       9.44600985    -152.46462742
C        0.21588925       6.40211780       1.51919711    -147.51660631
C        1.10703220       2.40573523       3.98850702    -154.09976549
C       10.72075268       2.80630198      10.74603623    -156.50015426
C        4.38222032       3.32524955       4.56809207    -153.56494217
C        4.75486758       0.83861772       4.27667494    -154.79300678
C       10.14897863       3.40047618       3.78124646    -154.43887472
C       10.62453532       1.71186852       8.95336793    -149.36488002
C        4.87835890       0.37263543       5.38675193    -154.33164165
C        3.64310144       6.26022867       4.14809464    -136.48039658
C        8.97005508       2.20942728       6.96155133    -153.87501801
C        2.42438050       0.15397790       3.59466461    -153.86302531
C        6.33501418       1.60595734       3.05634016    -153.15522585
C        3.81621307       6.18572289       1.48194960    -153.57576438
C        9.07093107       2.29803806       2.71181682    -153.18811515
C        9.65307675       1.17797677       1.30416858    -154.05068710
C        1.88734713       7.65172771       9.67776856    -155.69232553
C        3.04745326       8.96661221       6.50615692    -155.74513542
C        9.14093960       9.33871076       3.30116024    -151.33747741
C        7.72033758       3.15175060       7.03499197    -153.49170458
C        3.91218297       8.13201834       4.00394612    -154.16385508
C        0.46175295       0.30890582       7.92629631    -150.06275067
C        1.56026405       9.14748105       7.36702417    -154.41899737
C        0.21839501       2.74391079       7.95603407    -154.42918279
C        5.08513530       2.44367131       0.50390547    -150.31815719
C       10.43827625       7.45562419       7.89977548    -154.99141923
C        3.66678191       5.45626555      10.74148519    -151.79373227
C        9.62924566       3.83288945       7.28042532    -152.19637825
C        0.35517579       2.13113435       2.54195439    -139.52709728
C        0.55823928       1.65065006       9.49047662    -147.36411919
C        0.67834475       4.70774334       4.72852965    -155.42301463
C        0.14898574       9.06983365       5.36055386    -155.20941664
C        4.53725690       7.51395926       6.38248271    -156.34633535
C        0.59107132       8.76626966       9.73711497    -153.34626713
C        0.45260783       6.91611625       9.67043095    -152.25865024
C       10.16516010       6.94425092       6.41322105    -154.39027348
C        9.07051147       6.18338819       2.85024157    -150.77427059
C        2.98365264       0.90353297       1.13775978    -151.42626008
C        7.85841805       1.13171325       2.92729722    -153.84381807
C       10.74494958       4.94892690       1.36050248    -147.14682497
C        6.11945847      10.12646013       4.66725739    -155.19285609
C        2.77533770       5.03121141       0.22821578    -151.72840506
C        5.33861635       0.49481092       0.16739862    -154.25865792
C        4.11238566       4.40882722       9.87002037    -153.91484680
C       10.70872417      10.31792654       9.87761620    -150.74593133
C        7.88366932       2.23088065       8.56782068    -155.46823735
C        5.74046342       1.65988124       0.88572797    -152.00806317
C        2.09174580       5.81514135       0.28224512    -152.22793793
C        3.02499932       6.41409252       6.36138439    -153.88428771
C        7.02147872       0.16593003       2.87930151    -153.36644649
C        9.75855757       7.81538222       4.20573038    -153.83629988
C        7.98419026       6.45002744       9.57277189    -153.26170518
C        3.74527926       9.89125856       5.32857824    -153.34586921
C        6.79331351       8.52266534      10.15668204    -155.79019241
C        6.63317718       0.78880805       6.94044225    -154.30338515
C        7.82739997       2.06063090       5.63623064    -154.05877193
C        6.21060836      10.05781798       8.32661561    -154.11821720
C        3.68212418       4.09479476       8.11570776    -153.23821063
C        0.59985601       2.76880702       2.43523629    -139.54305279
C        8.32914397       8.38043192       9.06763882    -149.15356831
C        7.99413154       1.51463531       9.66326548    -151.36745154
C        9.03397405       3.07886942       8.25886645    -154.14296135
C       10.29618269       0.47898665       7.50847219    -152.94488242
C        2.08895923       2.05959804       4.15887511    -153.59868934
C        4.32779075       9.90695588      10.05045885    -155.37663365
C        6.65295214       5.91083152       0.69162992    -154.12936866
C        9.28758420       0.93106299       6.82186778    -154.39852419
C        5.23867639       6.60420331       4.26763742    -155.57222024
C        0.62157404       5.94430263       0.66933198    -149.91569804
C        9.09921637      10.01836488      10.40134074    -153.31537303
C        6.80246938       6.93268505       8.32506632    -154.11674447
C        3.21261402       8.46652510       7.57713585    -153.76762469
C        2.65352478       9.65153822       5.38112499    -152.28087513
C        2.68869582       5.94334509       2.27062424    -154.39942414
C        3.96547209       8.22411502       9.93531649    -154.72061104
C        6.34074871       8.04701182       6.36775369    -152.65718734
C        8.30047134       9.10036757       9.76331303    -147.54775767
C        8.22415806       0.66321551       8.07123023    -153.79144329
C       10.25657897       9.43896273       6.57040942    -153.01717084
C        6.17809479       3.03155152       9.43165740    -154.80351597
C        1.22363778       9.80907088       5.92421566    -155.04504797
C        4.60391940      10.27349205       8.61288996    -155.09815987
C        7.06386902       2.44951343       4.88352320    -153.56716821
C        5.26776861       9.57621476       3.94981781    -154.03912339
C        7.04676227       7.35545829      10.74319587    -155.48064627
C        1.87261811       8.59434151       8.50315935    -156.03391207
C        7.40851071       6.98711461       3.30447400    -153.87723440
C        4.08737108       5.86795707       8.24541776    -155.13049014
C        3.11887122       2.04294317       5.60671882    -154.92907972
C        8.64228343       3.13079215       4.95424182    -154.29766726
C        9.63050446       3.54770176       1.29765941    -151.98915280
C        9.38240289       7.50610522      10.37900515    -149.54564792
C        0.09506185       5.65184189       4.07025358    -153.92898421
C        4.10781310       1.39011113       3.32337749    -153.79933363
C        9.15443134       4.03356553       2.78109375    -150.48904254
C        8.29647977       9.72670030       2.04921564    -153.49975312
C       10.74537994       2.10784121       6.16697002    -150.40547369
C        8.08095633       6.76366182       1.61588786    -154.21230887
C        3.24991533       4.96996066       2.52679502    -153.47469615
C        7.47001967      10.52892046       4.86642721    -149.93066482
C        6.74734048       9.77599784      10.35926246    -153.81954277
C        1.95079270       9.49043359       0.29552382    -153.37829100
C        7.15180198       5.29554824       4.99829976    -154.86572944
C        1.75375315       4.43403546       3.68996746    -151.86143668
C       10.31659243       7.78029725      10.09971336    -152.33016695
C        8.08704590       7.17241614       7.78793611    -153.52904990
C        9.58930841       2.09986882       3.83819362    -153.65497887
C        5.36828955       8.36985586       9.15654009    -154.88311792
C        6.86734589       1.89790166       0.41033481    -153.20971917
C        6.00735013       4.25925619       8.77466165    -155.48204213
C        8.37611757       4.45163711      10.28949062    -153.82194348
C        5.04475694       3.38844767       5.56871818    -155.31394321
C        1.45141568       9.31953830       4.49898729    -152.92199199
C        6.13687722       2.00014404       8.04307404    -153.51817184
C        0.86735490       3.07060654       0.88013546    -154.05242983
C        8.10882203       5.78104621       2.69914276    -153.42732714
C        3.74393439       6.49719471       4.78391676    -137.63226548
C        0.60637163       8.67532419       1.59016320    -154.22420973
C        5.39486418       5.30674832       8.84238929    -154.50512966
C        3.57542760       5.32508158       3.78582977    -150.94992112
C        9.49721173       4.02970307       5.04521957    -155.09347013
C       10.19789961       1.82071690       7.22215480    -156.86934535
C        6.89027323       1.75748651       6.28468378    -153.82897844
C        6.93422358       8.99831886       2.91173977    -152.83261096
C        2.71193516       3.61479462       6.25480615    -153.45684725
C        6.02097097       0.50950013       8.88470427    -155.72311324
C        5.63383139      10.11986489       1.38943332    -152.60508191
C        6.22731702       0.82137757       1.16617419    -151.52298493
C        2.71735768       1.89829974       7.73261355    -154.25145131
C        9.53898876       9.25107905       4.32434788    -154.05325330
C        7.39986051       0.10633379       6.23338507    -154.22982501
C       10.39860797       6.17849287       0.25292803    -151.38081682
C        3.75182071       0.04590826       2.36024635    -153.48734800
C        1.83342323      10.57929390       2.33623236    -152.49956976
C        6.38467753       4.30087184       0.13898529    -154.84463032
C        1.50850271      10.72540055       4.37369922    -153.28205675
C        8.53617859       5.41777000       6.27630255    -153.39312236
C        9.91469157       3.25574668       2.50911805    -155.79997595
C        6.30870853       7.30493422       3.30402213    -151.30875616
C        2.65408425      10.50970497       5.92440932    -148.24620888
C        9.53764389       5.66512920       0.63824397    -151.25801169
C        8.21689576       3.48365369       9.19814498    -154.00713397
C        0.17755185       9.74787393       2.02226446    -154.99978397
C        8.90008958       7.44362795       5.18662455    -156.53333794
C        7.23942293      10.04230356       4.14529731    -150.73655280
C        1.94715617       9.56754304       2.05298128    -151.08963538
C        2.23688414       7.60387186       0.10114023    -154.24627068
C        2.71114976       4.63707851       3.93128012    -150.50358640
C        8.09672896       4.21870568       8.24108190    -153.94053560
C       10.44940101       0.44620948       1.73027710    -155.04576848
C        1.65682570       1.41096199       1.47148113    -153.38417351
C        1.13729715      10.43357458       0.61133043    -153.79154751
C        8.82179664       5.90766838       4.86653480    -154.91606317
C        8.21135490       6.32724622       0.44045667    -154.47541092
C        8.86712413       0.71826264       5.34906330    -155.68554316
C        4.74480795       4.01657714       7.73173132    -154.57113557
C        7.47932617       0.66338227       9.39810021    -152.66451986
C        9.17119379      10.58995603       0.76416143    -153.82357906
C        1.73154666       6.87382279       4.18606300    -154.72610935
C        5.42846440       1.80816120       9.80643493    -154.62944627
C        5.30716792       7.16138821       5.43369326    -154.58539624
C        3.06762631       3.65949809      10.56899758    -152.48232075
C        8.66255331       8.47017238      10.48342083    -148.94094626
C        8.34882210      10.66914196       1.46873760    -150.39068701
C        2.99388441       7.12579758       3.70484710    -154.18326011
C        4.69610215       0.53988558       2.54754905    -153.51114213
C        9.09300845       9.84699621       8.05099263    -150.65041309
C        7.28046835       2.36939147       3.58802633    -155.00409484
C        9.10319718       0.01364279       8.65621628    -153.33545660
C       10.13288323       4.76067742       5.72766026    -153.64181109
C        0.51997720       4.78794061       0.68004790    -145.96650414
C       10.61008604       0.45192787       9.46650566    -152.71336890
C        7.78916264       8.04538721       4.32766164    -154.76310574
C        6.20563772       3.96111471       4.61710988    -155.74661929
C        4.20721511       8.98933513       6.78043503    -153.51896874
C        4.18266317       9.18964541       4.53632087    -154.87661617
C        7.07484315       2.80380590       1.90713285    -154.79976018
C        1.25751774       6.69808597       5.12046772    -152.49757885
C        6.62618386       6.23752727       3.62910404    -151.46273885
200
Lattice="10.758957740055605 0.0 0.0 0.0 10.758957740055605 0.0 0.0 0.0 10.758957740055605" Properties=species:S:1:pos:R:3:gap17_energy:R:1 anneal_T=2700 density=3.2 run_id=205 time=1 pbc="T T T"
C        3.03089523       5.96815524       8.17273024    -155.82684504
C        0.14219254      10.63488544       2.19984105    -155.85774730
C        2.35185437       6.71895835       7.03274335    -156.07636846
C        1.09976990      10.25833268       8.37266395    -155.64759594
C        8.89170835       4.35841074       2.83171464    -156.52096955
C        8.95414258       0.86367103      10.59765945    -157.11098958
C        8.89284880       6.77855222       0.53846432    -154.51033479
C        2.52280345       1.76420010      10.07225650    -156.57531858
C        9.09519252       1.54317883       5.37402408    -156.74127722
C        2.21824963       8.29355333       6.85466108    -154.35445221
C        7.03474452       8.90020792       5.20320411    -154.38952736
C        7.27040873       4.66531001       7.95145075    -155.75016205
C        5.29882972       0.93329440       7.30678476    -155.71900795
C        3.26054518       3.28070747       7.55585464    -156.30435640
C        9.85625967       5.26915652       2.64578909    -156.08465064
C        6.52763180      10.15850031       9.14442551    -155.99486671
C        7.27957536       9.62619012       0.93524822    -155.51148676
C        0.68899505       8.80190333       9.08202355    -156.98014579
C        5.60086594       5.95483565       3.82690747    -155.84764345
C        4.26002008       1.25305277       2.33356414    -156.41466097
C        8.45966088       7.47582951       4.00613019    -155.63997744
C       10.04541290       8.85348177       3.42323138    -154.58424029
C        7.87060795       2.40248602       5.77218083    -157.26616652
C        1.50240238       7.41462180       6.10421302    -156.35550526
C        7.19000704       2.06562306       6.99143971    -156.43404597
C        6.82687070       7.67012553       1.24551074    -154.74345139
C        7.27539013       8.26414910       3.61122265    -154.82121069
C        1.23290124       3.97035666       4.66364238    -156.67609909
C        6.76187583       6.33163587       3.47015119    -155.57512356
C        8.06719562       3.55534062      10.29944265    -154.51130899
C        8.43944480       4.75381320       8.68487814    -155.13965271
C        7.97041880       4.71452149       1.67128574    -156.41035429
C        2.67056697       7.84529212       4.83673249    -155.59224354
C        8.84517586       4.51169362       7.22240226    -155.19256837
C        3.25617704       1.14803459       4.70155694    -155.42748455
C        1.62366659       6.74953531       8.22148983    -156.26021215
C        3.88392995       3.84539136       2.91695786    -156.05430606
C        3.83801072       7.32943237       3.78514120    -156.93375081
C        1.76909542       2.64888767       5.25439523    -156.78030188
C        8.53975056       5.95763298       5.13268990    -157.47421430
C        8.47960799       9.56647790       7.86593856    -153.91209730
C        5.14425578      10.57971350       5.94208629    -156.04301890
C        6.40177352       9.75786900       5.97363155    -155.54181582
C        5.61916693       9.27567403       1.90457222    -154.62918015
C        5.62946325       3.27859871       9.79793536    -155.86361978
C        1.38237544       8.05116477       2.67664578    -156.23415457
C       10.10757816       4.68041559       6.55786448    -155.77849758
C        4.99625555       9.91836037       9.84048704    -156.68299898
C        6.01147081       4.47167029       6.21177032    -156.17052772
C        7.91896946       5.96040879       3.70624576    -155.99573596
C        5.51017869       1.74410236       9.65066674    -155.20556158
C        8.90178949       2.08009385       8.53430653    -156.85008404
C        0.15232210       0.07008611       9.22718341    -155.12340133
C        9.12037924       3.02306270       2.65774229    -158.57670301
C        1.96556475      10.26448680       2.13426521    -156.00317834
C        9.40180129       2.00209141      10.04759697    -155.49869920
C        5.20758300       1.12852860       4.92902283    -155.99551893
C        4.21042128       2.69845419       4.86729869    -156.21377657
C        6.13519882       5.26517570       0.79154620    -157.12251224
C        0.87826233       3.79317814       9.93870556    -156.51473671
C        1.51749719       8.73839320       4.02204269    -157.12626196
C       10.26195845       8.33920359       9.08705874    -155.44589483
C        7.36120357       9.15106378       8.55263979    -156.91834870
C       10.69542609       6.11863003       0.11614940    -155.67612870
C        8.29972897      10.31357993       5.32114380    -155.45109684
C        1.08039302       6.42220478       5.27352465    -154.74678143
C        9.43914564       0.64364281       6.65998850    -156.20822711
C        7.00488841       6.55435706      10.07156793    -154.58154140
C        9.90314721      10.34935346      -0.00514156    -156.70684044
C        2.30158852       9.26996102       2.70475894    -156.85131649
C        9.20766666       4.71958896       5.33550701    -155.49165599
C        1.43638541       2.36828330       1.49521539    -156.33076614
C        6.47475153       7.48367279       5.73100630    -155.87350597
C        0.30791276       7.10521569       2.56693669    -156.62022360
C        2.70997703       8.55907365       9.27592149    -155.26797693
C        4.46005062       2.62284024       9.58803885    -157.42257034
C        2.73061272       6.58633268       0.89175083    -156.17823627
C        5.35291500       0.17577017       3.26246027    -155.26313796
C        2.55210009       7.00838507       2.96337201    -155.83563262
C        3.99514530       4.03161816       1.53576590    -155.18946764
C        6.40537777       1.75803521       4.62691129    -155.52222855
C        2.55149759       3.86419802       9.64187668    -155.38995400
C        1.67994670       7.87364197       9.25086387    -156.38052828
C        0.44902510       1.67462101       0.68010492    -156.89957056
C        3.99398333       5.22229050       2.62513189    -156.16206246
C        1.12323519      10.33216065       0.87445366    -156.47187725
C        6.62090121       3.40289695       2.78548340    -154.65531851
C        5.26656361       9.19397051       5.70361399    -156.29692395
C        2.24875128      10.13105421       7.95454933    -155.91013428
C       10.77348233      10.17158320       3.52701229    -157.95271017
C        0.44058577       8.19293556       4.56507956    -154.64896342
C        5.79222477       4.48684042       9.53578259    -154.85893181
C        3.34134495       8.99403679       8.02868931    -156.11495473
C        3.20953696       2.41580561       5.56188624    -155.74340960
C        0.58711202       2.74639611       7.42657500    -155.41007547
C        5.78775980       6.16462457      10.07091163    -157.25927816
C        6.78238241       8.77696406       6.81680031    -155.99575708
C        0.70107413       1.46965211      10.02119449    -155.90731573
C        4.32298150       5.56134829       1.29843406    -155.85601688
C        9.98017058       9.07050071       0.90189438    -155.66562801
C        0.93161815      10.13859624       4.44648357    -156.49914428
C        3.82788654       0.35837550       8.20641653    -156.38246683
C        6.59709164       0.86480287       7.78668807    -156.47202392
C        7.62689603       0.42457860      10.16330956    -155.57034284
C        9.18732147       9.32440135      10.26306662    -155.85943154
C        6.00492936       4.33859274       7.61964450    -156.14448690
C        9.94078204       0.57223776       3.43956348    -154.70978490
C        0.62274999       3.91675553       8.46650358    -155.99838116
C        8.32783137       0.33486395       4.34271343    -156.62666101
C        4.07861329       6.01981976       7.23439850    -153.64323941
C        4.25223059       9.82078738       8.12923177    -154.84494076
C        9.46704361       9.93365961       6.12659165    -157.13022107
C        1.05439722       5.42592529       7.79612368    -154.81223514
C        7.06234124       5.04036728       5.78741551    -155.56898197
C        1.52870803       2.25502375       3.04520464    -155.99266273
C        2.42011995       5.66146039       2.85700895    -155.54095200
C        9.75041304       7.44332670       1.82085677    -155.03622984
C        1.16627102       0.38062718       5.55674346    -156.68638123
C        7.73050480       6.24846913       6.47000683    -154.78312950
C        4.14295186       7.32498892       9.63252714    -155.98210215
C       10.73479312       6.74901888       1.31919884    -155.75502183
C        8.78036389      10.32510277       2.94734116    -155.75676175
C        6.92745619       7.65400861       8.59392192    -155.14596369
C       10.42722680       0.54048055       1.30895632    -155.28733863
C        1.78520158       2.63919385       9.26709914    -155.27107132
C        4.40536284       7.71064376       2.65644046    -155.95933501
C        9.27932132       8.61050147       6.66131185    -156.24799398
C        8.25241108       7.39930104      10.34803011    -157.08116465
C        3.28293457       9.08334690       5.94146227    -155.86073050
C        4.17990888       2.39373899       3.38810338    -156.77593484
C        6.71198655       1.21850576       9.17358228    -156.75100750
C        6.30706241       2.76988291       7.75210878    -155.32474210
C        0.39420821       4.74026767       0.29450065    -155.30007934
C        4.07030737       2.76084539       8.35694511    -155.74242892
C        1.38549554       3.94291056       3.36748922    -154.87261309
C        4.91119523       0.95609263       0.72015944    -156.62516780
C        4.96831454       7.84529212       1.28968702    -156.09599183
C        2.89012502       4.21801711       6.42444264    -153.97912024
C        9.12364996       7.30713981       5.23359816    -155.49850630
C        5.32778208       8.92091892       3.42008976    -154.83194640
C        2.91800148       0.72545931       2.21901352    -156.04747261
C        3.96081346      10.38428780       4.98861669    -156.42187258
C        7.78114721      10.40415959       1.98594221    -157.65481846
C        4.26921899      10.67026089       0.04674014    -156.56711405
C        6.23615012       3.86724281       0.60631568    -155.63021389
C        3.59705310       4.79637564       4.52322722    -155.76679410
C        0.13098493       1.51821804       7.42722054    -155.71274926
C       10.23467373       6.20131262       7.24888005    -155.86819266
C       10.29690354       2.21540927       5.48803675    -156.76529249
C        3.51283198       0.71272823       9.92744093    -155.29163478
C        9.53816032       1.16467869       7.87320085    -156.59690173
C        6.07505625       4.56033486       4.48033125    -157.26983047
C        0.54052035       8.59650406       6.05806785    -156.92934659
C        7.90924336       3.70627804       5.31270878    -156.78800017
C        3.50443999       9.24503252       2.63702054    -155.42128505
C        5.63433706       8.03010949       7.72435067    -155.27767532
C        9.09663422       6.37936261       7.86813338    -156.68956354
C        6.39130505       1.50198278       0.91811889    -155.03738952
C        4.56008741       8.43216099       6.65844997    -155.31183781
C        6.91770858       5.70863842       1.63574890    -155.13699899
C        5.62873164       6.66455030       6.42801461    -154.47914632
C        2.72687936       1.62847584       3.45415262    -157.90031067
C        4.95468294       8.37013559      10.36742851    -155.52226951
C        7.37253276       4.83906718       9.49720097    -156.47297502
C        4.23342393       6.12022235       4.54398125    -155.94684663
C        4.99106974       6.35778014       0.49749098    -155.87652992
C        8.37049064       2.57934177       1.64538893    -154.65761955
C        4.14871866       1.80660115       7.15773016    -155.72449864
C        2.33721143       5.30784573       4.58874927    -155.60203836
C        8.54205298       7.76707449       7.56748507    -154.65933959
C       10.24558331       7.65751603       6.55532536    -156.03180712
C        1.22360550       0.31380975      10.36397488    -155.41965899
C        7.99174305       9.04731515      10.55730260    -155.99409608
C        2.73948886      10.58855737       6.03746445    -156.17483046
C        7.64329269       3.65017007       0.74699659    -158.53346262
C        0.21615930       5.82224226       4.88252261    -154.05294480
C        4.32486431      10.01112411       3.74573114    -157.43972148
C        3.90986980       2.16935017       0.27072981    -155.68641290
C        5.25484710       6.61818995       8.82580973    -154.76619137
C        0.78768051       8.72873166       0.83067546    -155.14297912
C        4.93958812       3.91466829       5.28384249    -155.96169052
C        6.85981462       3.64703922       3.92767587    -156.25596829
C        0.36345911      10.01798832       5.86585907    -156.34621557
C        8.13450366       8.25025929       1.76678225    -154.61246490
C        9.08680053       6.49323542       2.41464364    -154.37427615
C        8.99203563       3.31734172       8.06550646    -154.95440095
C        1.70875919       5.95662164       0.10531675    -154.88974450
C        2.76210418       2.71432365       0.51073526    -155.04208035
C        5.08166016       3.52373080       2.05916768    -154.57891985
C        2.95481864       0.72945088       7.25479748    -155.95043866
C        9.33016815       7.05888762       9.08261529    -155.94685452
C       10.61191506       6.13603802       3.35213619    -156.29851136
C        0.78382558       1.74572696       5.58913868    -157.48026387
C        9.78798332       2.44244479       3.58415311    -154.31724518
C        7.16752082       9.99507174       3.12362668    -154.12320550
C        7.16632657       1.07344058       3.44796622    -156.23835716
C        3.15049180       4.31914055       8.52201980    -156.07479924
C       10.33590476       3.63306333       5.87255114    -154.89240261
C        7.06755934       0.92837863       1.98309109    -157.02974023
C        2.95593757       7.36376420      10.62679470    -156.05913999
200
Lattice="10.758957740055605 0.0 0.0 0.0 10.758957740055605 0.0 0.0 0.0 10.758957740055605" Properties=species:S:1:pos:R:3:gap17_energy:R:1 anneal_T=2700 density=3.2 run_id=205 time=2 pbc="T T T"
C        4.68847405       2.97591695       8.22215689    -155.84142069
C        1.64098851      10.01960216       9.10939434    -156.49798619
C        9.96253665       7.90762952       4.70163226    -155.03120981
C        1.04866270      10.20060011      10.39695109    -153.93602626
C        0.27376383       5.96384090       1.44542294    -155.85683945
C        0.93772709       0.75774263       3.88868541    -155.23142884
C        1.95194391       6.60223442       3.32989742    -156.04738718
C        5.11330226       8.64616741       1.04777939    -156.16152227
C        0.84260391      10.76713455       6.78082236    -154.92032757
C        1.14304243       4.41592813       4.82474701    -155.69663315
C        5.60353416       3.27414450       1.82703241    -155.31553568
C        4.85095583       6.72855534       6.90023603    -154.40068116
C       10.91603852       1.45097456       6.06857935    -155.82730988
C        7.36219340       3.54965989       8.33516898    -155.79855961