200
Lattice="12.190250613399492 0.0 0.0 0.0 12.190250613399492 0.0 0.0 0.0 12.190250613399492" Properties=species:S:1:pos:R:3:gap17_energy:R:1 anneal_T=2800 density=2.2 run_id=221 time=0 pbc="T T T"
C        5.87471339       5.26443287      11.42965212    -153.51949680
C        7.93254959       2.44214605       7.47099013    -154.68102822
C        7.47396455       9.05106604       0.63051633    -152.23046904
C        3.29326934       7.24559240       7.80117526    -149.96332092
C        5.68676410       7.16880601       3.20968080    -155.66608947
C        5.52487757       9.34783769       5.96617684    -155.94105663
C        9.98841098       8.61828776       7.27870112    -154.40064294
C        1.04313803       3.47451399       1.61172179    -154.74761114
C       10.45413950       7.96218409      12.16232275    -151.79713831
C        6.68397536       9.46238947       5.10708111    -155.40558166
C        5.25091388       2.22914580       6.46100349    -155.16067926
C        5.22881296       6.99681376       6.79395580    -150.45299101
C        1.86124403       9.41782192       9.25114462    -154.46123370
C        5.81259187       2.26210824       4.29263828    -155.17397443
C        8.74857716      10.44709354       1.15732167    -153.54145191
C        4.95003412       4.45629239       1.49971777    -154.51864199
C        8.01131080       6.70454032       6.22735296    -153.58717131
C        4.05817100      10.65010997       4.87315020    -154.00396758
C        5.21186851       0.00127389       4.40025381    -154.61766854
C        5.80789862       6.39406682       4.20280832    -154.94119026
C        3.74740494       4.98533708      10.11996816    -155.39390998
C        3.41106374      11.11646020       1.81340949    -152.65238784
C        2.41505931       0.29076551       6.36626086    -153.49773568
C       11.23919164       6.41727706       0.50076209    -154.13409890
C        9.49696102       1.87069148      11.42105799    -155.40506513
C        4.33017206       2.43084568       3.89752788    -155.31758797
C        2.91972350       7.64684669       5.90779773    -149.86428433
C        9.00719332       6.73906311      11.31839170    -155.50098460
C        0.22189791       0.83068512       9.19420396    -154.44917382
C       12.03094842      10.25157411       7.16286936    -154.57349327
C        2.14514278      11.59804824      11.62481803    -154.77361208
C        1.12351323       6.12773423       5.93139805    -154.32004583
C        3.34126236       7.62294161      10.05337282    -155.07786221
C       11.13328274       6.44642395      11.57070551    -152.84574790
C        4.32716107       3.01568515      10.34852317    -154.59189461
C        9.07014378       2.57370323       7.14090253    -154.98753691
C        9.99924811       9.85272130       6.32138855    -154.09445036
C       10.37091666       7.06732217       4.13043481    -155.72116770
C       11.23454716       3.64183737       1.35055787    -156.57506696
C        6.41096251       2.93771631      11.54319211    -152.77065297
C        9.32960107      11.98536907       3.75447529    -155.54588115
C        3.13443038       2.64685693       5.37473026    -153.65933166
C        1.81249522       0.04400266       9.91169773    -154.66553332
C        6.71518240       0.04679557       4.15225535    -157.69584924
C        5.72509025       3.41268504       4.28147201    -154.96325507
C        9.95304706       5.92045121       7.21455602    -155.33951428
C        8.65544364       8.73034054       1.01320853    -157.19933981
C        7.88258175      10.93051012      10.77117135    -151.84571950
C        2.76736974       5.39766012      12.07435790    -155.41564128
C       10.44063270      11.23614408       0.80593770    -154.31400987
C        3.33186368       5.27384374       8.46972517    -153.79511153
C       11.17765526      10.75848130       3.58058136    -155.32436863
C       10.50310774       6.77503653       2.95477047    -155.78118053
C        5.44223986      11.61359081       9.19328969    -154.80964728
C        2.24583425      10.62487615      11.03122597    -154.28790410
C        6.76922179       1.92451144       0.99284228    -155.33632628
C        8.27544915       7.37767376       7.74818424    -154.22585162
C        9.57223582      11.90668100      10.80720573    -156.16182962
C       10.63548167       9.07684842       3.98524892    -154.81480185
C        5.56877467       7.80128497       1.55447638    -153.69239892
C       11.22986610       6.42126327       6.42304305    -152.90445596
C        9.92547271       7.81458454      11.33675022    -152.56926099
C       10.69202005       4.86645776       1.39789261    -154.71956127
C        6.11534893       5.20607814       6.76133469    -153.71078065
C        2.09329765       5.15095383       4.90958686    -154.67240995
C       11.58738177      11.66399749       6.51663979    -155.34981090
C        9.82870650       9.48695283       5.39875724    -152.17230773
C        0.02099344       2.63522743       1.57495600    -155.89581185
C        7.38682864       2.43985428       9.01827426    -155.10153267
C        7.42517917       2.03594252       2.49407651    -154.98989299
C        0.54535768       2.54273999       4.90984286    -154.54890922
C        4.70154805      11.91295898      10.70908640    -154.79670768
C        5.85035726       0.53805084       0.28377441    -154.76590469
C       11.20469323      10.96892159       5.00539004    -155.00406367
C        6.47772851       3.95498053      11.49913655    -154.65585663
C        4.54162415      10.56298625      11.08713045    -155.27436085
C        3.37240845       9.63255318       0.79190184    -152.60550476
C        3.79484940       3.72292692       2.04497549    -153.23052621
C        9.33133209       5.94856192       4.17991503    -153.82472257
C        9.14124951       4.17152814       6.45156823    -155.82813313
C        2.41575415      10.02406746       7.86623463    -156.15860081
C       11.46688114       1.25213378       5.56002207    -154.77930724
C       10.80139098      10.68384039      10.25446320    -152.79052806
C        7.71089426       6.15106637       7.24334939    -156.08887743
C        3.72723008       0.95326053       3.92541917    -155.37812231
C        8.19889438       5.77987324      10.66555502    -151.60899038
C        0.52449285       8.06332660       7.65864685    -152.97855865
C        4.23961069       3.50145444      11.70170194    -154.81382021
C        9.00347530       5.79740282      12.10816147    -147.14369727
C        1.67674459       8.78551362       4.91918059    -152.49787759
C       11.92161406       0.47094839       2.90008500    -151.89888934
C        1.37994856       1.63215265       4.14723297    -156.11884167
C        3.56184495       5.96822480       3.92356625    -153.61467777
C        6.61597814       5.73960884       1.31288999    -153.52721926
C        5.92908190       3.62926922       7.27302046    -155.39773988
C        6.27233498       0.58813449       6.69761625    -155.17413497
C        1.67572061       7.46846675       9.94723231    -155.45679166
C        4.58633799       4.26767265       5.46264634    -153.84302589
C        7.12489673       2.51633591       4.61219351    -154.54070038
C        1.91453981      11.72526569       4.41908775    -153.73746688
C        0.59076393       6.65666920       8.78445307    -153.94502477
C        5.50932281       6.80894981       7.75669304    -147.65890765
C        7.85618986      10.85132225      11.95774596    -156.54782609
C        9.38851655       5.72404189      11.27770064    -149.18152048
C       11.48119250      11.76841918       8.43449535    -154.08547580
C        4.71984561       7.40990479       5.10723959    -153.89889689
C        4.40656836       7.63223058       7.80647802    -154.66121041
C        0.14971578       4.74082503       4.71681024    -155.16944424
C        9.06358542      10.50481437      11.21043484    -131.76613756
C        6.17833596       8.66984033       6.94339609    -151.08673002
C        4.30214668       6.35182760       7.11780200    -151.73619375
C        3.64976103       7.20952145       6.54538440    -154.89824591
C        6.64216280       0.75475693       5.27863451    -155.46388304
C        2.76730879       0.03095799       4.89288622    -154.93567160
C        2.78227842       2.88685858      11.68853647    -155.79720297
C       11.41334156       7.97884816       9.06074510    -153.05650734
C        7.16773327       0.88535718      10.03410004    -152.36713109
C        3.66150024       3.58606697       9.45712328    -156.82702337
C        2.31483107       4.29432053      11.79405528    -156.54000816
C        6.12685653       2.34793979       7.85423942    -155.20056232
C        6.77194021       7.73517724      10.59173086    -151.82504401
C        9.82117293      10.12327172       1.52640223    -155.35062382
C        7.82047243       2.67187132      10.42587031    -154.83650819
C        1.34776630      11.69341257       7.98213953    -154.25707803
C        8.78224663       8.34433626       7.92395546    -155.39238524
C        2.68819407       4.74356784       9.37753314    -155.39166607
C        5.14969823       8.73941009       7.17164634    -155.55068057
C        8.04733299       7.67609110       4.79280426    -153.13648705
C        9.70196447      11.01927952       7.20103703    -154.31959374
C        6.35212017       0.51280971       2.78872706    -153.77254660
C        0.47500165      12.17094126       0.62585234    -153.28295126
C       11.25252778       9.40355932       1.14104403    -156.07777208
C        0.39615633       4.78982984       7.26184200    -154.03138636
C        3.78919312       7.91512972       3.09241059    -152.95299551
C        9.58937531       9.53271503       8.11865815    -155.15677210
C        4.88014741       2.92089376       7.98755200    -154.25710838
C        4.59176265      10.46812172       7.61281151    -154.30665729
C        6.52394175      11.04094160      11.91030151    -153.25457315
C        1.38373973      11.65127087       5.36068709    -151.85402485
C        9.32036086       8.59285890       1.99322788    -153.51492250
C        8.57907172       8.79019467      11.64634601    -154.84956057
C        1.41864042       2.05779964       2.49730693    -154.87650748
C        4.99794180       4.37772623       9.39299038    -153.76790070
C        1.34147613       1.09411522      10.17628712    -156.69911566
C        6.18227341       8.04434638       9.82240414    -153.93717023
C        8.30029288       1.86309695       1.41203330    -157.18335387
C        2.33365282       5.74654509       1.20707374    -153.45105891
C       11.14794762       4.32091966       5.09914526    -153.82287200
C        9.02790456      10.98468359       3.71179722    -152.02347677
C        3.69637655       9.21629269       7.70894382    -155.26772816
C        7.20484039       4.76874071       6.68462145    -154.57961995
C        9.27140482       0.57940749       7.32862020    -154.49573553
C        1.28375529       3.07567337      11.94845699    -155.24730428
C        3.45074300       8.67309513      11.00923475    -155.67075863
C        7.89652740       2.05124128      11.95167522    -154.86743759
C       11.31572203       3.45319324       8.47714904    -151.33188296
C        7.43678429       3.56372224       4.00814221    -152.42377840
C        5.70818237       9.65899383       4.10022736    -153.00704647
C        8.05185557       3.69171988       0.07300973    -153.31883117
C        8.25622513       7.89711253       1.82400282    -151.84837266
C       10.39228617       1.58619541      10.41225380    -152.37990899
C        7.50653690       6.13131816       2.84121828    -154.68738262
C        1.04843957       7.53592760       1.97015173    -153.96522035
C       11.55465095       0.68953055       6.76278533    -155.45887045
C        8.07037256       0.06514482       7.93161094    -154.86010903
C        8.80950403       0.88327630       4.02942639    -152.75062794
C        1.04387798       1.38759185      11.21588388    -152.64298171
C        0.23669200       8.36434046       9.95008483    -154.56485661
C        8.14314836       8.93035817       8.46038744    -149.28222124
C        8.63031954       2.99065856       5.96895621    -154.52821125
C        0.59835358       0.65823818       3.41552537    -155.13389176
C        8.72706137      10.39964908       5.44506800    -154.51994088
C        6.53465698      10.28206192       6.10682795    -152.97008185
C       11.70003188       7.73610370       3.08181726    -154.84016806
C        9.77526444       2.18195734       1.82961033    -153.13966539
C        4.11978053       1.16379713       0.83229789    -152.58026828
C        0.86716323       8.36386504       0.50936353    -154.53982323
C       11.04999895       0.32581858       3.95316418    -155.55298843
C        4.94354890       0.53836169       6.32652064    -154.90659005
C        9.80168072       0.27914089      12.07894144    -155.49145344
C        1.04307952       9.54293046       7.75019563    -157.47653085
C        8.45334148       1.25526668       9.19086383    -154.16441481
C        7.83074881      11.75352269       4.70530264    -155.97808494
C       11.53619491       6.24448026       7.67620081    -157.46566052
C        5.72883266       9.46768004      10.14464123    -155.09380110
C        3.52744406       0.82732061       8.83969928    -153.61614867
C        3.91936062       9.37969081       9.95192556    -155.43327170
C        9.45036989      10.34368364      11.59086818    -128.81011389
C        8.89660337       4.77200770       7.56169779    -155.29906009
C        4.12039004       0.02167134       8.18641156    -156.20015777
C        7.19218691       0.86772398       8.73129138    -155.61556150
C        8.49052174       1.34992397      10.34203796    -155.91752285
C        0.01637590       7.39460602       0.35877858    -156.63468160
C        0.77687858      11.32865589       3.43267705    -154.57168526
C        4.15501035      10.47822744       2.12015277    -152.71796017
C       11.13261228       7.76503117       1.88787973    -154.97184335
C        1.06691390       5.53655583      10.23905472    -154.20252413
C       11.94027733       7.36651968       8.18027986    -157.06664680
C        0.06035296       9.91195373       0.89142427    -153.27119934
C        1.34972893       6.56908225       4.85635204    -154.39770824
200
Lattice="12.190250613399492 0.0 0.0 0.0 12.190250613399492 0.0 0.0 0.0 12.190250613399492" Properties=species:S:1:pos:R:3:gap17_energy:R:1 anneal_T=2800 density=2.2 run_id=221 time=1 pbc="T T T"
C        7.37756405       2.99711940       4.73288918    -154.39660739
C        9.78118891      11.02872696       5.53926207    -155.59147332
C        2.05164356       8.33393797       8.28244635    -152.72462213
C       10.16975314       1.85698964       3.53912232    -156.01126923
C       10.43781676       4.83995615       5.30942708    -155.60876715
C        1.77692407       1.83783875       4.84245515    -156.02750982
C        5.84727313       7.87424362       5.30530678    -154.55067163
C        8.88537615       4.07901633       9.07350829    -154.71448053
C       11.99932691       8.66561031       3.10606367    -156.09794067
C        1.47950634       8.12582601       5.30253959    -155.17777799
C        6.26758078       9.12564599       7.84931456    -155.68449335
C        0.04266722       5.95713167       9.47571342    -157.38895437
C        5.41649406       6.39031223      11.07147817    -154.22765959
C        7.44681687       8.38251612       6.20876282    -155.17359498
C        2.22885323       1.01575385       8.64836111    -156.29669732
C        4.05960945       6.38152305       1.13512688    -156.38270192
C        7.19017552      10.17835946       0.47155059    -155.75757268
C       11.52594291       7.46188402       6.49483143    -155.53107043
C        7.68559949       6.54347053       3.65630720    -153.97331786
C        4.55474086      12.20719506       2.26475352    -156.75970643
C       10.68247509       4.64831322       7.13982978    -154.63062310
C        6.42077566       0.04488987       0.77401631    -156.54879180
C        9.61926581       6.11872563       4.68515216    -154.70719607
C        9.03684001       2.56726678       8.07017752    -157.05733974
C        5.95368183      11.08329053       0.82832022    -155.90073122
C        7.03634675      10.42079917       9.65523924    -155.04500948
C        0.87098853       2.30401832      10.65748507    -155.92228423
C        6.04687629      10.46346504       3.19856329    -156.13573118
C        2.42027674       0.80400432       4.46689791    -156.68289498
C        8.54824258       7.52055569      11.19752536    -156.49194136
C        0.76346077       4.83665259       3.94621574    -156.06943364
C        3.10291858       2.66181436       0.38352601    -155.74724021
C        7.46005548      11.13981672      11.17518064    -155.16875828
C        4.36554817       6.09829477      12.12386251    -156.42244880
C        1.26177627      11.94297138       9.84712597    -155.82931132
C        0.86847978       2.40546558       3.23586545    -156.27881598
C        4.21871660       7.16544150       4.23605114    -155.33757704
C       10.19167122       3.96129508      11.33956616    -155.72555122
C        7.96407358       2.10925468       1.72353077    -154.64882345
C        6.01310930       7.83005396       7.33912819    -155.65234009
C        6.94548062       6.87226597       1.55728014    -155.00527985
C        1.99193571       5.05327335       7.27046051    -154.73347523
C       12.19512671       3.18814062      11.76393317    -155.84611155
C        1.02095421       6.30229862       8.23647692    -155.45995637
C        5.02174936       5.02672298       3.88627628    -157.15580106
C        1.50793400       8.20870753      10.33967305    -155.84219331
C        8.61285091       5.86430291       7.08588793    -155.62399139
C        7.00977200       5.06058750       5.08910049    -155.13057525
C       10.19230511       8.37562863       6.60634785    -156.42249502
C        1.94205321      11.93630331       3.82041235    -156.62515486
C       11.60826367       4.82833884       9.52521802    -158.04570538
C        9.87541954       7.44290380       9.62156977    -155.40951909
C       10.15310126      12.23584215       9.97850030    -155.81841984
C        0.80530015      10.64627004       8.59233472    -154.75543180
C        3.75065974       0.73793438       8.53115185    -156.82916280
C       11.85092280      10.99922656       0.15075805    -154.06391225
C        2.74022205       3.02118295       5.16453377    -156.41597143
C       11.96126895       8.56758851       9.78697928    -155.72902908
C        8.45751054       2.93327905       7.08680219    -154.20380809
C        4.96079811       8.95236158      11.85950473    -154.93136216
C       10.50508256       0.66059943       5.87423797    -154.07243063
C        6.00236969       6.61364981       9.39235648    -156.85199464
C        1.42660065       0.57053299       0.56491328    -155.45818920
C        9.15111142       4.75545334       0.11707712    -155.83517662
C        2.83696388      11.38604759      10.61502643    -155.30626268
C        5.41223966      11.54166833      11.32424302    -154.88243780
C        8.95590894       2.61746623       0.92587635    -155.43469615
C       11.37528360      11.07022258      10.10877751    -157.26550172
C        9.12458544       4.61147429       6.79869781    -156.40776948
C        6.21516270       2.86445290       4.24619343    -155.84982991
C        0.24696229       0.36293911       1.43420737    -156.28345775
C        3.29515883       1.69921122       9.51531954    -157.18227443
C        3.61781039       8.68253038       2.45028913    -155.25015538
C        6.67221177       1.60310329       9.79880382    -155.38112830
C        5.34519328       2.15763779       9.31608208    -156.00201838
C        0.30638854       1.90610416       8.03956780    -155.02158480
C       11.45066811      10.27333370       9.02067574    -157.30348771
C        0.11457129       8.40264223       1.32965159    -156.09857149
C        8.12802026       9.45483152      12.09649540    -155.74332024
C       11.49495529       2.41196299       9.05720992    -156.99682147
C        5.75187223      12.16444385       4.72650149    -155.85534756
C        2.37384407      11.22970763       0.73204771    -157.18988836
C        7.91099723      10.60025185       2.37689164    -154.98883117
C       11.19570902       0.43872102       3.05435262    -156.35322040
C        8.20731784       6.64929410       0.40046192    -155.69224704
C        5.64515878       4.51301363       5.11733311    -156.68904589
C        5.83287645       9.47957773       4.21240205    -155.79091641
C        0.30618009       4.50441950       0.08099995    -155.31794149
C        8.08090494       0.83806876       9.66974564    -156.07454315
C        2.03706402      11.00723555       2.68725542    -155.57129484
C        7.28890436       0.31071974      12.12130256    -155.46759639
C       10.79322351       4.17149157       3.54781397    -155.60221472
C       10.08227591      11.74990219       2.57644604    -157.77196803
C       11.69052348       3.58623764       8.82154800    -154.81208851
C        9.99278728       6.98212451       6.10966828    -156.25102266
C       11.65561060       4.72662339       5.97865965    -158.04413935
C       10.51771166       4.60545230      10.19909508    -155.76397313
C        1.60986888       8.06385078       3.96998673    -156.06394118
C        7.64921160      10.09627031       7.80517366    -154.79626876
C        7.89819747       3.25836866       2.38334028    -155.95987057
C        8.14845112       7.95098125       2.41553473    -155.05862679
C        2.94134900       7.14455960       0.36824919    -156.80100582
C       11.69510701       7.83277239       0.09224741    -154.64288574
C        4.43164371       6.69759187       5.97857432    -155.64902244
C        0.27091247       9.98880106       1.83758276    -154.58634329
C        3.69980201      11.56880383       8.87475844    -156.23952377
C        8.38633167       3.49190948       0.27326153    -155.75169388
C        8.64357034       9.03291475       9.46544923    -155.31988876
C        6.65844898       1.81711533       7.01516009    -154.98562985
C       10.45368846       1.54474856       4.66173469    -156.15777220
C        9.64398764       6.27053082       0.88013244    -154.28052169
C        3.63910675       2.39843181       1.99203323    -154.66122448
C        9.05190716       7.79987090       8.67803218    -157.42543116
C       11.71641557       5.08772300       4.30207353    -156.89712388
C        8.58933591      10.43273342       6.97162871    -157.34545899
C        0.12285213      11.49669850       4.31460511    -155.19212540
C        4.52413114       2.78619149      11.69313219    -156.14308111
C        9.38289685      11.00597996       4.20207691    -156.25383504
C       11.04203872       2.18374930      10.45088470    -155.64715305
C        0.53810448       7.73685950       5.77843479    -156.08399667
C       11.74736662      10.30152975       4.09368120    -156.35719623
C        5.95538846      10.67713576       7.39851909    -155.60003266
C        7.65917103       0.98355818      10.89454888    -156.05459254
C        8.62992945       7.16767232       7.38175750    -156.25719840
C        5.88985368       4.40177759       8.71416408    -155.22897998
C        0.42314432      11.41880279      10.69845650    -156.15884161
C        7.47863342       6.64491780      10.90386223    -155.58960107
C        5.78181149       3.64080120      11.86935446    -154.60870561
C        4.01309145       2.79847926       9.81639435    -155.14311593
C        6.09755117       1.53738565       4.92450773    -155.57974011
C        9.53033793       8.07936897      11.93492581    -155.50856863
C        5.03485388       9.94506245       0.46939779    -155.32676928
C       10.30934370       3.24987205       2.77267250    -155.96862754
C        3.60810695       9.42691584      11.79076391    -156.48083956
C       11.16478235       9.45396601      10.53088932    -156.25101944
C        5.15990147       0.97557235       0.96649792    -154.34936846
C        8.29156466       9.06464598      10.86825451    -156.76411923
C        8.65565088      12.12839728       3.92745494    -155.22262157
C        5.51140735       3.70000925       7.87471904    -155.53785299
C        4.64369312       7.38448811       2.15159142    -156.06244866
C        8.16389617       4.75143055       4.10594459    -156.23228582
C        4.18852135       3.01557544       5.96542104    -156.01968050
C        9.07929866       1.17710523       8.33360884    -155.59483990
C        4.63987757       0.51231844       5.82846357    -155.68509800
C        3.76950587       5.74516759       6.43225888    -156.03424016
C        5.70667078       6.72715323       2.02823828    -156.54503001
C        2.85268931      10.24577155       1.85243048    -155.57135982
C        4.88757127      11.00284706       2.63136312    -155.82557980
C        1.24460021       7.42308245       8.59532133    -157.40837988
C        9.61900981       9.28834926       2.52483252    -155.25031914
C       10.62000005       8.88621728      12.07486989    -156.27987575
C        8.26524591      11.78552210       7.77597801    -154.74285824
C        7.29030624       3.44457474       9.75462635    -154.89417254
C        6.00411290       6.26182698       8.01088414    -154.88912345
C       10.19195159      10.86953448       1.31513300    -154.00263407
C        4.45537813       4.35023721       6.61004149    -156.69544429
C        7.19729463       6.08800620       9.76136756    -155.90664361
C        2.87693572       5.48089515      11.94231311    -155.48955048
C        1.41654369       1.47999395       9.84125027    -155.98217497
C        9.97247832       1.43083067      10.18338185    -156.43122027
C        3.91029107      10.49646405       7.95611335    -154.81723023
C        0.14255157       1.37721794       2.51071621    -157.05779746
C       11.00680889       8.64027897       2.07926667    -156.04282237
C        6.95654937      11.87057348       4.81501490    -154.89307090
C        8.69147802      11.97266683      10.47493607    -156.14484619
C        4.82622993       4.54602483      11.09629752    -154.91045984
C        1.46826693       2.36696877      12.18669106    -155.58992495
C        1.49491481       5.04898238      11.71641557    -156.09873568
C        8.72240469       4.11235666       2.58176099    -156.00582990
C        1.09327166      10.73833081       0.31358566    -155.33874488
C        4.89245956       3.94377769       2.71095326    -153.46887201
C        4.86360524      11.36308116       6.56955767    -155.58170495
C        6.10598682       9.92322971       6.21083517    -155.45343629
C        2.44343821       8.20718375      11.35983855    -156.16779896
C       11.35893647       7.02314471       9.93744354    -156.41730196
C        8.74701681      12.02727915       2.24004388    -155.62580886
C        5.22233993       8.99143133       5.23117787    -156.18909170
C        3.45286411       1.04456307       2.85905262    -156.28521912
C        5.14084811       1.76390488       6.74635287    -156.12076240
C        8.15444872       9.53930995       5.42139454    -154.56954245
C        3.16886784      10.72789596      11.78460783    -158.08725554
C        1.72034912       5.47100886       0.90008300    -157.08272241
C        7.70810270       5.14988108       2.71089231    -155.38651186
C        1.57205472       2.22010063       8.27619276    -155.13590471
C        2.93180403       8.05019770       3.22777113    -156.16197677
C        8.46844520       8.73387572       3.21665362    -155.26875053
C        0.59898869       3.84936420       2.88996709    -155.12469092
C        3.88090038      12.08398820      11.46728342    -155.05690666
C        9.69969708       9.70184257       6.63523874    -155.90557624
C        5.94178414       9.59111852      10.36390727    -156.32250769
C        1.79595305       6.82552855       1.45667400    -154.37815235
C        8.13988137       4.60803663       9.86965356    -156.39904185
C        0.49190221       4.53613854       6.58423473    -154.81292496
C        5.13348520       6.34369671       3.51652159    -157.58088378
C       11.33646984       8.98862757       4.15963046    -154.15790229
C        6.17699503       8.22466457      10.13481589    -154.63908375
C        5.52741315       0.90842845       8.22774870    -155.07187776
C        7.28306523       0.34145745       6.36164076    -155.23079394
C        1.40596255       3.92886901       5.24807355    -155.55805033
C       11.85822476      10.99682508       7.56466002    -153.43214039
200
Lattice="12.190250613399492 0.0 0.0 0.0 12.190250613399492 0.0 0.0 0.0 12.190250613399492" Properties=species:S:1:pos:R:3:gap17_energy:R:1 anneal_T=2800 density=2.2 run_id=221 time=2 pbc="T T T"
C        6.34695150       0.98518314       3.96493996    -157.04368696
C        8.65571183       3.01768435       8.21188918    -154.96454674
C        8.57283031      11.78893537       5.45257720    -156.17674432
C       11.82698115      11.01984027      12.28643169    -154.32353933
C        7.94456918       7.74127237       1.45144438    -155.29410120
C        1.62396081       9.58347523       9.92099889    -154.47774846
C        9.46819203       3.56745246       2.59245184    -157.90298961
C        6.79644261       4.18757051       1.56749557    -157.23894885
C        1.11221774       3.71082200       1.96753083    -154.95500050
C        4.36955876       2.51857892      10.64519730    -155.26386468
C        8.46615343      10.22926595       1.26805425    -156.70288847
C        3.06113040       5.94932991       6.78532511    -152.54426591
C        9.05546672       2.44140244       1.41124093    -154.44899998
C        7.09448205       6.70720998       3.70597028    -156.63041792