200
Lattice="13.55543733162543 0.0 0.0 0.0 13.55543733162543 0.0 0.0 0.0 13.55543733162543" Properties=species:S:1:pos:R:3:gap17_energy:R:1 anneal_T=2300 density=1.6 run_id=85 time=0 pbc="T T T"
C       10.79380164       9.80497315       6.11052004    -152.43878262
C       12.19333277       9.07128511       6.22849301    -153.30147252
C        2.36288895       2.37091377       2.15630408    -154.34429952
C        8.23473840       4.57683075       5.75012163    -152.25480504
C        3.32491834       7.11428662      12.35325982    -153.24645058
C        5.19209849       1.10390602       6.16560934    -150.01052102
C        7.27110947       8.07326603       0.62412216    -154.93478032
C        6.91580791       6.48395878       6.50385817    -151.02077965
C        8.72643478       6.12867077       5.38064107    -153.75600429
C       11.02503029      10.79407275      13.08946917    -155.22668030
C        1.53961302       5.99077131       9.25707593    -153.30300741
C        4.56196044       1.68644551       3.69346357    -156.19738692
C        9.14239693       0.20008503       1.32005018    -155.94845750
C        3.76827602      11.44908504       6.42649728    -152.45430087
C        6.00107344      12.49999743       0.83950992    -156.42144812
C        6.21156227       6.43552521       0.93021884    -153.94669924
C        0.91351041      13.17158801       5.48599393    -153.93472702
C        9.38735724       3.13835485      10.01386244    -154.76841874
C       11.42764033       2.19531663       4.45531981    -155.93105843
C        1.99172752       7.37560834       8.09872314    -155.06007955
C       12.39555278       6.33659762       3.14761321    -152.33998558
C        3.82579174       4.63212338       1.11681893    -150.96334100
C        6.46400518      10.59799335       3.14159460    -153.95505761
C        5.81113465       4.18326218      10.64881268    -152.00427979
C        6.19522797       8.46078888       0.26139221    -153.23313752
C       10.10575475       6.60179620       3.99978934    -151.75229565
C       12.34347279       5.89532747       5.93556001    -150.28162228
C        0.73000368       2.88511217      11.58600851    -153.99354368
C        8.72891543      11.44248354       6.22708325    -137.00755065
C        8.66285978       6.12297749       1.38255972    -151.85378434
C        6.34658798       6.15492765       7.34190952    -152.60073400
C        5.95471384       2.82054762       5.56900743    -154.43445703
C        0.69199694       8.63690112       3.39758903    -154.66891786
C        6.41324007       1.98326893       8.18509839    -154.14465134
C        5.79467835       2.16733821       3.97090270    -155.59294997
C        6.57639331      12.29131147       6.94533165    -154.56794288
C        7.03285911       6.89550186      13.39578139    -156.84982820
C        9.29701025       1.26870353       1.38809034    -152.59448861
C       11.57981367      10.42848260       0.68787473    -156.74150344
C       10.77203161       7.19828966       8.14332053    -154.28252004
C        7.76647938      12.87892612       2.65893970    -155.13490513
C        3.75981743      10.44133316      11.86038412    -156.84959927
C        2.92240318       5.36213790       5.87389633    -154.00755738
C        8.48521577       4.37294342      12.25743643    -150.28237436
C        3.91459341      11.26391776      13.40659863    -155.07290362
C        5.69802808      11.07594451       8.56909682    -154.40876447
C        4.01156901      10.02146704       3.60748143    -152.90502375
C        3.39284463      13.25533350       6.98553708    -153.49378016
C        5.65578934       8.57949384       7.85807347    -154.38932609
C        1.57652447       8.58692222      11.97542911    -151.30563000
C       11.19176217       1.75948221       7.01019442    -155.79582744
C        1.98931465      10.52071380       5.81895614    -153.07509289
C       11.34150908       7.15950756       0.16762383    -151.98786748
C        1.26630964       5.78868685       0.53894386    -151.80555295
C       13.09659933       9.43470638       3.72409885    -155.78804282
C        1.47382848       1.18732076       4.48309490    -154.22997280
C       12.40752223       5.74034816       6.87950644    -150.87250092
C        4.90311013       1.03425547       2.22985589    -152.64117563
C       10.86338170       6.52165645       9.93670489    -154.14852310
C        0.13218164      10.34362557       5.14789421    -154.13387028
C        1.38765656       5.89359238       5.64447055    -155.65980069
C       10.24396599       8.40687890       8.98423209    -154.46976094
C       11.26151845       2.39596421       8.46664482    -155.63614841
C        3.35922715       8.00786105       4.53371090    -154.28947045
C        8.01862407       5.20924612       6.73973633    -157.00232122
C       10.37469463      12.45174007       3.85802657    -152.31051609
C       11.32945830       0.55600202       5.72246854    -154.06627470
C        0.39841328       0.18656891      13.43545816    -153.66491744
C        8.47370721       1.88036960       3.06084486    -156.27404995
C       12.67867165      12.29221968       6.34559843    -152.94939709
C        0.65973771       4.49841254       8.80269767    -151.82958010
C        8.49547724      10.14802061      11.16104555    -153.21339310
C        7.82312755       7.11888191       4.15826596    -151.98171267
C        7.83229102      12.65330942      10.04437573    -155.69721318
C       12.69812370      12.01808807       0.52110761    -153.40269748
C       10.18586739       2.60688682       3.48466916    -153.94759471
C        2.92160341       4.28556507       8.94482643    -154.55338683
C        3.83042770       0.60263950       7.64956373    -154.94498037
C       11.89101940      13.30570551       3.59075402    -155.50417687
C       13.19861755       3.74683132      11.72293198    -154.47450680
C        6.20837674       1.82339610      10.08126008    -154.23654887
C        5.62878691       5.46766698       6.66932939    -153.53005963
C       11.21498263       0.55754056       0.83399557    -154.64555500
C        2.78760791      12.51096377       8.55799492    -155.97607424
C       12.27935557      11.11235442       8.92191774    -156.37749082
C        6.95469846      13.24371649       9.76533705    -153.07438718
C        5.37699466       9.65517201      11.71432428    -152.19431638
C        8.97814570       0.81940179       7.31593731    -153.65437494
C       10.15615387       9.71904524       1.43031553    -154.00006308
C        2.53661543      10.27748859       8.53462534    -152.12330540
C        7.99567471       8.77458369       9.89129418    -155.59618575
C       13.08155280      11.07022412       3.15519070    -154.63474131
C       10.38532209       6.57351956      10.89491165    -156.13124475
C        1.02649091      11.24774612       3.40648140    -156.56972307
C       12.27745781      13.27441956      12.23768616    -154.65388717
C        4.05115089       5.21367875      10.11833420    -155.45632087
C        4.37035433      11.08068892       7.29819324    -152.43948265
C        5.76804192      12.43985195       8.46663127    -156.40777697
C        4.90186303       0.94355604       1.10833864    -152.71391459
C        3.69824863      11.25465940       0.94311820    -154.15699170
C        5.44715760       1.83337290       0.65893116    -149.80784183
C        1.01037350       4.53022716       2.03750423    -153.84658520
C        3.94888867       1.05394474       9.97498545    -154.13411629
C        1.05066704       6.46025032       7.24856678    -154.70176585
C       12.25429157       3.77062111       4.17484426    -152.19277512
C        4.09337608       1.53101887       6.17917833    -133.01901585
C        4.86726955       6.38336388      10.24163446    -153.89426041
C       11.10624091       7.77758128      10.51460030    -158.25089639
C        6.30089260      12.65640006       2.25070415    -155.81674010
C       10.79525207       2.52292444       5.57780491    -154.91783663
C       11.92963884      12.93295809       4.95771143    -157.03185329
C       11.80125530       9.33947943      12.62886897    -155.52850464
C       12.74781793       0.41615328       3.60243880    -151.18639278
C       11.06009821      11.69301513       1.08929732    -153.42744146
C       11.41386801       3.38069896       8.08107397    -150.43757065
C        7.26751728       4.69522394       7.44159621    -151.91495011
C        4.24016791       4.10497953       8.38390244    -157.46798042
C        4.48272890       1.96797839       5.96531420    -133.05194646
C       12.17905889       9.54962938       8.40508958    -154.43338313
C        6.03134273       9.09152337       4.77269326    -154.68574729
C       12.19582697       7.54132356       9.59762918    -152.27912924
C       10.63621968      12.57569099      10.86096883    -153.32061146
C        4.18181175       1.72605450       1.51038749    -156.10546567
C        2.85916706       7.01084508       6.79810604    -154.51762246
C        4.32064654       9.89034530       6.01915639    -153.67002289
C       11.37690233       9.05432725      11.18976952    -156.01641902
C        8.59483860       0.37162096       8.32145254    -154.62362960
C       12.65488185       2.14318242       7.91247144    -154.49938644
C        8.23982169       4.62457300       3.75210439    -153.66910221
C        9.69261213       3.27470900       4.05322487    -151.54309568
C        7.44952614       2.33874671       4.38636330    -154.18498090
C        2.60786281       1.68410042       7.59493532    -153.29253657
C        2.64966778       5.38135951       3.51047872    -153.46956052
C        2.59513426       6.02765565       8.68842533    -156.40734102
C        6.92949890      12.13198086      13.38038241    -154.05616487
C        4.14778760       5.95455118       7.89863133    -154.44041670
C        3.04109459       1.07479978       4.22684291    -156.03480111
C       13.35992726       4.81196337       2.50827101    -154.22426930
C        8.88981847       7.00526024       5.83651043    -150.31741059
C       12.12697890       1.29875187       9.57233474    -154.73443419
C       12.57319679       2.29164157       6.53109104    -153.51883790
C        8.08143996      12.66606509      11.49766772    -154.05747653
C       12.89778173      13.16500007       2.54228161    -151.72267074
C        7.97508400       2.97695026       1.95743226    -155.03776376
C        9.83131137       4.76548177       7.24063685    -152.56659679
C        3.85528838      13.44172077      10.63760234    -156.01480993
C        3.51561623       2.25003993       0.79760871    -150.39509525
C       11.69103604      10.39745421      11.54314622    -153.99213223
C        0.13022654       9.32700843       0.73292894    -152.00954668
C        5.26964915       3.02970802       8.02862798    -156.07507395
C        5.68918994      11.22537965       5.62329696    -154.30687195
C        0.68135999       5.83707976       1.95964180    -159.44951428
C        7.74962997      11.34232241       4.54935388    -153.14853175
C        8.50709425       2.46512406       9.29131697    -154.43556856
C        1.36247056       8.66177535       5.09498734    -155.65416389
C        9.56748189       3.61859688       1.46165570    -155.67901948
C        3.41437067      10.97890114       7.67521062    -154.80276610
C        0.97452343       0.38952769       8.04128876    -152.63003698
C       10.43185791       9.01306450      13.51802432    -154.99845496
C        3.56270782       7.45151879       0.78075252    -151.98206064
C        0.19215510      10.09379886       6.90085626    -154.25932137
C       12.61978683       9.21354942       7.19574124    -156.24624272
C       13.33204372       8.89232622      11.01475527    -152.99004935
C        1.88859775      10.73034864       2.60725282    -155.50725569
C        9.36725453      12.93234810      11.22857874    -157.72055952
C       11.12776695      11.63208344       8.48684243    -154.02322538
C        5.02643750      13.09117716       7.00150538    -154.08469614
C        8.42569385      10.87842823       7.45539564    -152.83862919
C       13.13628965       6.50778924       1.16610650    -152.86234810
C       10.66251723       8.07841710       0.50305990    -155.90463024
C        7.34054042       7.74525156      10.25777898    -153.89669050
C       13.18226970      13.13486633       4.22124452    -154.53522306
C       11.19384971       2.03956466      10.45332972    -154.39133104
C        1.51195992      10.98349643       0.45493945    -153.82686780
C        6.62889352       9.16712205       5.86032733    -154.62347393
C        3.16402885      10.59757313      10.75195600    -153.75068833
C        8.32911136      11.77712662       5.88871242    -136.99871001
C        8.75442676      12.84947016       0.77847385    -152.42561059
C       11.58522229       9.03360099       1.89967254    -153.66816828
C        8.54712346       0.51870694       3.93958964    -154.22880540
C        4.11800631       0.54273260       5.94858679    -151.46319215
C        1.25784699      10.23661894       4.71597731    -157.98428918
C        9.77120656      11.70190750      10.76537589    -154.46306045
C        2.19116867       6.11476289       4.40550358    -156.77891877
C       10.59465871       3.24625613       0.71045945    -154.25474713
C        1.38743968       3.68473386       4.34676787    -153.46970959
C        4.66832995       3.91155700       6.72219559    -154.56055955
C        1.92751541      12.79579062      11.97102359    -152.09754578
C        5.50526976       6.49259360       7.79359025    -151.47123818
C        3.08317067      10.59700380       2.89052079    -156.83420451
C        3.36829573       3.11368396       3.46646421    -154.84007732
C       12.62030193       1.61533369       0.28254005    -153.24263481
C        1.08110713       0.97471999       1.52818578    -152.54057007
C        2.48648743      12.71051337       9.94923012    -155.13669532
C        0.31117184       8.09237920       4.99669687    -153.72619023
C       10.34550977      13.45729597      13.09699244    -154.57138225
C        5.49851916       6.23757515      12.91711179    -152.59416760
C        9.52907934       7.05584913      11.64504244    -151.51316495
C       13.43296396       0.20981648      11.53621939    -155.36254436
C        7.21770105       8.85458789       7.93948742    -154.58484821
200
Lattice="13.55543733162543 0.0 0.0 0.0 13.55543733162543 0.0 0.0 0.0 13.55543733162543" Properties=species:S:1:pos:R:3:gap17_energy:R:1 anneal_T=2300 density=1.6 run_id=85 time=1 pbc="T T T"
C        1.53757970       9.83291091      10.64650826    -156.73199733
C       10.58316370       8.15958706       7.86086589    -155.91426856
C       11.02276653       3.04379212      12.00073711    -154.28814937
C        1.71619970       3.72095399       9.36565498    -155.32877858
C        2.22078730      10.44504735       5.72339031    -157.14699305
C        7.31455465       7.79109605       3.63771005    -154.71044106
C        9.60780932       4.55011298       7.02524095    -157.36892628
C        3.75720123       6.98214822       8.84888105    -156.87986892
C        6.86248082       9.11212764       7.16742393    -157.44735652
C        7.75869855      12.42853316       9.29065275    -154.33459373
C        9.60662999      10.05199389       6.60797748    -157.61841115
C       11.26017646       1.87208723       2.40118306    -154.03716966
C       11.03165890      12.32048277       5.56083350    -154.55755438
C        6.65108377       5.64994695       7.85956456    -157.11027922
C        4.38039891       4.53291113       2.17742345    -154.93302924
C        5.29757335       7.25163031       2.51614672    -157.17541361
C        1.34031691       4.85184346       0.18342811    -155.88761034
C        2.03808711       3.34352995       6.55513838    -157.01125933
C        2.46965157       4.64569237       5.65946286    -154.58519285
C        0.23344768       5.30268375      12.32434607    -155.47405158
C        5.57865890       6.58405213       7.42063950    -157.17096512
C        5.98346493       1.10015929       5.87590253    -153.60105953
C        5.90413851      12.80925117       0.73615649    -154.11974238
C       12.78533938       1.22058038       8.74478884    -155.28629425
C        8.93455141       8.89300400       2.37512951    -155.20811551
C        8.20708531       9.53629083       0.22037888    -155.75365546
C        5.60497001      13.44089389      12.20812175    -156.48585226
C       11.10895200      10.28558118       3.43315850    -153.96219887
C        9.53158709       6.63549502      13.53797793    -154.59910148
C        9.04333380       4.68576224      11.92615510    -155.46444040
C        5.38061396       8.64134730       0.93331219    -156.90978578
C        7.99342451       6.30303436       8.18179086    -157.08980769
C        4.09099032       3.11379240       7.92810085    -155.47432900
C        1.96518597      11.60986608       2.15597875    -152.95877783
C        5.55652287       8.48924174       6.65243931    -156.34633028
C        0.25696500       8.61395176       1.29697747    -155.76406428
C        0.91586092      10.51563051      12.92992168    -155.44670256
C       11.32104037      13.02266798      12.11021083    -154.46778470
C        2.64566893       8.04253586       2.28087855    -156.93298777
C        5.07286487       3.29390349      12.19421387    -152.54980684
C        4.14626939       7.59763285      -0.03951125    -157.01217673
C        7.33658224       5.15408905      12.56598529    -155.49474299
C        6.76936852       5.75111117       2.29062491    -154.73095243
C        8.64854524       2.40152194       8.16624278    -158.22341727
C        3.86971136      11.27436900       1.27527114    -156.19251917
C        3.22069058       0.50038812      12.02090760    -155.17300789
C        2.83643460       9.17025335       8.21048773    -157.25212062
C        9.30335419       2.59144718       5.34606115    -154.79535841
C        3.43230451       4.88447140       3.38111918    -154.94223429
C        2.41099719       7.12128122       6.53660810    -152.84952434
C        0.08973876       4.84856305       3.25796803    -157.59481616
C        4.99851329       8.56246821      13.06844469    -155.37896632
C       10.16463957       8.65497052       6.77613268    -155.56071126
C       12.91149984       9.60859553       8.78329984    -156.21616327
C        9.60122137      11.81323830       9.94430949    -152.64221330
C       11.32715388       7.75055174       3.48309673    -156.81216487
C        9.84204727      10.85051759       5.69314812    -154.22831938
C        0.52268004       7.62673637       0.08461494    -155.17141419
C        0.75337596       5.32320668       4.27621182    -155.89214566
C        3.71164141       9.50827174       7.27323768    -157.37280207
C       13.54097368       9.44778738       5.98133672    -156.90533914
C        3.10477803       8.58758644       9.33573813    -155.28695091
C       13.40598864       3.31293533      11.61127584    -155.44768617
C        1.58838548       8.96621691       1.10970503    -156.70084445
C        6.76370234       5.30969191       4.10347488    -156.33680398
C        2.85585954       7.11213130       0.39112994    -155.56657936
C       10.87577137       6.51288609       9.87901295    -155.36176147
C        9.18353768       1.81270086       0.87468764    -155.73300538
C       11.61390560       1.65147249      13.12743795    -154.77876439
C       11.80922589      10.13541405       8.52036502    -152.90105811
C        9.43846124       2.00220587       1.89692079    -153.52170247
C        4.88391563       7.63866516       5.47181494    -156.80554854
C        2.15825607      11.98852366      12.76939819    -155.07922792
C        3.89046474       2.22878501       3.19240038    -154.87419903
C       13.25907481      10.41843802      10.05218366    -156.76024681
C        0.98113442       4.64912190       7.39983191    -156.00242483
C        4.95645077       6.32586172       6.00737672    -155.04062778
C       11.89088385       9.15686058       2.80989305    -157.58615987
C       12.34223925       5.02205909       8.14988137    -153.99608390
C        9.20735459       7.90672393       0.07714264    -158.26207948
C        9.88953197       6.90774242       5.82981404    -154.10707853
C        6.84271699       5.22548554       1.24581518    -155.92650190
C        3.15113763       2.37827437      13.63839661    -155.30801419
C        3.32756165       2.52246356       6.43713830    -155.04781415
C        0.51511340       5.57567670       8.23286775    -155.31361061
C        7.77492441       5.94945433       5.01187896    -154.12022689
C        7.11017932       6.95399357      10.81923164    -155.88709712
C        7.16553973       2.65312442      12.73372028    -153.09929964
C       11.37076172       9.39898780       0.31264938    -153.85963653
C       11.25517450       5.22388600       8.55760181    -156.22706702
C        7.75164973       9.06735403      12.73697358    -154.42754697
C        1.75189117       9.91162733       9.07906593    -154.45416287
C       13.64639432       4.46669282       0.42480707    -155.18905888
C        0.18184077       2.95629177       9.39395874    -154.19615950
C       10.40572302       5.37696755       6.17200750    -155.51137680
C        5.75782112       7.21782305       4.13196841    -155.76781599
C       12.33227600       7.21730794       4.27606271    -153.16530328
C        4.64605837       9.33051929       6.18682360    -155.91508837
C        6.19547197       8.23538906       9.63166689    -153.22355958
C        4.43912106      10.61838072      13.31061258    -154.89901817
C        7.32896408      12.42586274       0.62536519    -155.88697908
C       11.14640568      13.26658452       6.80633419    -155.68521190
C        2.65107755       2.41843913       4.26946121    -155.96125801
C       12.51482707       7.17154479      12.10905861    -153.41500154
C        5.18179636       6.52236134       8.71718997    -155.84118159
C        9.37729910       3.17290766      10.60760415    -155.74188732
C        9.52730357       5.63834349       4.67528389    -154.89317629
C       12.81818421       7.89086407       7.70645590    -153.95043023
C       12.53848131       2.33407009       2.56918915    -156.81510436
C        1.46490900      11.08451155      11.37124971    -157.48891478
C       12.28140244       8.85216146       5.76468017    -154.17530224
C       13.21831361       3.58451852       3.07026589    -156.18429117
C        1.50141379       6.98935971       9.59152924    -154.77186483
C       13.45497799       4.56628462      11.06198241    -155.68082065
C        1.10528189       0.85451850      10.59230006    -154.80815964
C        4.81818531       2.15429788       1.93095849    -154.82357574
C       12.84642018       9.84120684       2.17053729    -156.29683567
C       12.49084751      10.75968260       1.02791559    -155.87220239
C       13.45047758       2.04323818       8.09021033    -157.42723445
C        1.42881087       7.21573551       4.44020550    -155.00414930
C       11.36692553       4.86440935       2.74431184    -152.32929867
C        1.07842722       4.71077203       5.61519080    -156.50060825
C        1.71209240       8.30144471      10.53229014    -155.47267734
C        9.07078356       8.93337209      11.93916832    -156.05455383
C        1.76945901      12.69066821       0.40444409    -154.91194102
C        2.44260847       2.66128479      12.39777587    -155.98731139
C        8.66195157       2.64453027      13.54872739    -155.56649764
C        9.91429775       2.41446739      11.68856895    -158.27285419
C        6.71498410      10.76301724       1.12038943    -155.09062922
C        8.08248373       6.34806552       9.42734578    -154.35708355
C        1.17115725       2.53523278      12.55693026    -156.07753689
C        8.37726027       3.54683440       7.34574571    -156.90074710
C        5.34518005       3.26471864       6.31729468    -155.16641988
C       10.84745406      13.44422852       9.41380390    -152.66041627
C        0.58522483       2.96324571       7.02835870    -155.26449659
C        0.22359694       1.85342139      12.17867934    -154.09522362
C        9.06098297       1.39290252      12.05165134    -154.56563864
C        8.11395946       0.17999452      12.74764171    -154.80661453
C        6.80407044       8.60810937       8.78719025    -157.49056151
C        9.04910841       8.77465147       1.13312612    -157.36078929
C        3.56535113       1.94342949       8.03536503    -155.39308149
C       11.86159055       0.42200110       7.87842018    -156.96999256
C        7.18594066       6.42922193      12.05784617    -156.76487012
C        1.04016699       1.87215501       4.04425117    -154.99211231
C        4.88453918       0.99630973      11.79930331    -156.77101695
C        2.88794526      10.58297392       1.96598574    -157.57734819
C        6.04485750       9.59482321       1.44650072    -156.32738825
C        6.80049180       5.67118832       0.01676225    -156.75478655
C       12.00445130       3.24292149      13.43330284    -155.81346487
C        3.76368073       1.47922354       1.03850239    -157.70920084
C        5.60671866       4.64443172       5.08400744    -154.48465161
C       10.87367028       0.83956008      12.26775212    -157.81874882
C        8.24501342       1.24214301       8.67926186    -156.10148183
C        0.12457488      13.10471904      10.49513469    -154.96009762
C        0.94365635      10.31498293       5.47413292    -156.04468283
C        9.41990384       2.95611555       9.23324547    -155.07384677
C        7.30445585      12.53825087      12.57212591    -155.64871672
C       11.73214968       8.68473826      12.28565885    -155.52855211
C        3.81596405      12.82521948       1.60762065    -154.46642339
C        2.30746076       9.97144748       0.71393913    -155.22545440
C        7.93166593       8.84692906       8.28673706    -155.90154348
C        2.35974409       4.87967278       9.33760878    -156.56278362
C        3.30804182       3.67784770       4.15823884    -156.71720012
C       11.85858124       4.41789325       0.84746968    -155.00018489
C        8.33084645       8.89631152       4.05916215    -156.23003439
C        4.85584232      12.08094464      12.55591360    -155.79502253
C       -0.17251598       2.40630701       4.17389538    -156.06827983
C        1.42519157       6.36700247      13.40234222    -156.85762738
C       12.18483351      11.00626956      10.88218309    -155.63030355
C       12.19750784      11.64103003      12.17260650    -157.00339737
C       12.96078741       6.04561661       1.64409833    -155.13934176
C        4.21267748       2.46352451      12.16515101    -157.30143975
C       10.22938034       6.46519806       8.27242252    -154.80357702
C        4.17530514       8.14862071       2.26016584    -155.53917036
C        1.81478839       7.20799536       2.81988341    -156.08963414
C       11.81681694       7.24447304       2.27936034    -155.88771292
C        8.00925726       9.42252004       6.17100440    -154.96036892
C        3.23763487      10.62411467       6.34645243    -155.90748300
C       10.10269122       7.44139288      10.64500360    -156.51754615
C       13.15894079      11.39414485      13.32053516    -156.94827731
C        9.52212540       8.91659046       8.73725202    -156.08635395
C        9.49047345       5.71788680       7.85437283    -155.80620124
C        2.05381142       1.16351876      11.60308836    -158.19128233
C        0.35190729       6.04268863       2.77138205    -155.81893342
C        0.70199408      11.99786336      10.70481019    -156.66342103
C        5.32812731      10.81502945      12.55362274    -154.95932573
C        9.75763757       3.56770977       6.05803339    -156.57600134
C       11.57626215       5.76481572       2.03716534    -157.72052119
C        9.79113305       9.16958914       3.88208748    -155.09215496
C        8.26369282      13.53129510       8.84093756    -157.67224192
C        6.64402139       3.96186122       7.55604477    -155.30793903
C        9.75925066       5.10691613      13.00252460    -155.59244797
C        6.67809976       2.17076773       6.02041705    -157.30578380
C        2.87535226       6.07985764       9.12035579    -157.60634967
C        3.36917684       0.29278796       0.35548863    -155.93910040
C       10.11056693       8.13232707      12.40897266    -156.56654050
C        8.36831368       2.35745322       6.10315944    -156.03859957
C        9.87268256       8.78809847      10.34161936    -155.92197100
C        2.81297013       7.58929625       5.52748713    -155.64545310
C        4.82029996       6.01972572       2.10667763    -155.46849756
200
Lattice="13.55543733162543 0.0 0.0 0.0 13.55543733162543 0.0 0.0 0.0 13.55543733162543" Properties=species:S:1:pos:R:3:gap17_energy:R:1 anneal_T=2300 density=1.6 run_id=85 time=2 pbc="T T T"
C       13.38851568       9.99558971       0.85801716    -156.50294586
C       11.03594242      10.14976926       3.82421931    -157.18881588
C        9.29081541      12.87721814      10.03918400    -154.81893868
C       10.64035409       5.94125329       7.41432267    -153.77388689
C        9.68820662       7.91412520       4.16086860    -155.15490213
C       10.01529932       1.58784326      13.09190915    -156.76133731
C        8.20639398       0.17008007       6.19289643    -156.18191852
C        6.95795176       6.83702370       3.37278258    -154.86336631
C        5.42716333       0.84887131       6.30634189    -152.81011240
C        2.56635606       0.29274187       0.49922507    -155.99592613
C        9.53886636      10.00609518       3.73994516    -156.32036943
C        1.57286450       8.57769097       1.66599036    -156.89329602
C        1.36945161      -0.17289011       0.60032152    -156.25979689
C        9.98162761       2.53585633      10.81410768    -155.43069784