200
Lattice="13.55543733162543 0.0 0.0 0.0 13.55543733162543 0.0 0.0 0.0 13.55543733162543" Properties=species:S:1:pos:R:3:gap17_energy:R:1 anneal_T=3900 density=1.6 run_id=501 time=0 pbc="T T T"
C       11.32940408       5.29400827       3.01632880    -152.62481205
C        7.96971605       9.50172446       3.19848677    -146.83516575
C        3.62167397       4.29955428      10.12164172    -153.30091485
C        8.29133235       7.69153136       2.54499269    -152.98338801
C        2.97052498       6.11187558      10.69833069    -153.74345815
C        1.29579543       0.42589557       6.20563854    -155.78866334
C        5.51995030       6.69340385       4.21498191    -153.67796775
C        8.75054990      13.09706022       2.29359355    -153.81303265
C       11.45195879      13.31354055       8.85003326    -154.06486717
C       10.19428531      13.17237423      12.92261530    -155.64327538
C       12.47315766       9.01094986       9.87319767    -151.55430897
C        5.99010709       2.99049214      11.69541444    -155.59604457
C        9.46002794       9.53892058       0.65366623    -153.92386330
C        8.13061909       5.28169994       8.25672532    -152.67050019
C        3.44992658      11.75128996      11.10446515    -155.58830692
C        5.55162936       9.71970945       9.61832834    -152.71796937
C        0.54466018      11.95178843      11.65690345    -157.37150319
C       12.49076617       3.24914344      11.36374000    -152.45726323
C        0.96209988       4.29739896      10.51573895    -152.31518296
C        2.34406045      10.96502037       7.66572181    -153.77056027
C        6.45812212       2.08481271      13.18706832    -154.60945983
C        2.39445956      12.68783512       8.00203221    -153.75000455
C        4.47159989      13.02341353       6.57370933    -152.61936629
C        3.98002551      10.47191422       4.36540659    -156.74287983
C        7.97603288       2.55903613      12.23443285    -149.99114519
C        3.83410123      12.98922671       3.07825004    -153.17034338
C        0.67651528      11.65657811      13.04666110    -157.08365847
C        9.16620028      12.22166363       4.97300196    -156.20849576
C        1.03761315       0.87652440       0.80321117    -155.20209545
C        4.89015113       2.13072497      12.66092758    -155.31490381
C        8.18349885      12.24945228      11.16569506    -149.10933801
C        3.34957568       7.84321671       9.52718158    -153.86544386
C        7.97130203       5.17198223       5.46288191    -153.60759987
C        2.76602765       1.09751734       4.05726439    -153.71728262
C        7.95889881       5.58821548       1.92408589    -151.89007532
C        8.67736410       5.11361251       1.60088359    -150.21677805
C        3.11349418       2.86583634       3.17180967    -153.53280445
C       12.82801190       3.90446750       5.10001641    -153.91313568
C        7.05206716       2.12645501       3.83902185    -152.86924533
C        8.51867059       9.89757034      11.47852745    -153.95559160
C        4.23135687       2.95202181       4.55454561    -154.06321336
C        0.61775110       5.90154942       3.77651773    -145.48267184
C       12.04396540       1.43935700      11.23928753    -154.60594838
C        5.11606605       9.07419953      13.23104216    -152.79219099
C        7.52111240       9.73147557       2.21819821    -155.46808751
C        9.69822408       8.21143661       6.80754063    -152.43237457
C        8.13875235       6.01237867       8.81854398    -149.89256297
C        6.87344716       9.70055562       1.09794162    -153.56006168
C        4.04563383      10.33147989      11.51862443    -154.52769911
C       10.23935714       4.17230939      10.82012630    -152.40547342
C        5.56343615      13.02077022       1.65887375    -153.99862504
C        2.92716114      11.15784646       4.97556394    -154.28704944
C        2.13515760       2.49003895       3.51270181    -157.44666527
C        0.26579230       5.25792370       3.54452998    -144.24694979
C        1.66420104       4.16550456       3.89515492    -153.43583447
C        3.38378960       3.04292457      13.48629105    -154.23429087
C       12.00619995       6.25910119       9.07872704    -153.96143662
C        4.56361420       2.92312162       8.72089061    -154.33262508
C       10.32786059       0.45673148       6.12974165    -154.97712514
C        3.09775632       5.07855815       2.01742863    -152.83494405
C        7.20846980       0.51966802       9.52433493    -155.04460205
C        1.93299181       1.83310179       9.27814108    -149.73160727
C        2.77330692      12.83698560       6.28561562    -155.54306631
C        7.27478300      13.46586300      12.51577595    -151.71446934
C        1.49912293      11.49848105       0.82503272    -153.85571602
C        8.72192082       1.62428028       4.13637392    -153.02820565
C        0.94300569       0.95209867       5.31270122    -154.53913980
C        1.71270240       6.75704662       9.92122458    -154.80348466
C        3.89984510       1.34352684      12.07599690    -151.64984359
C       10.33471964       5.87390988       8.91550602    -152.81252785
C        4.87744968       5.74160881      12.29780452    -155.44392467
C       10.43729364       9.75652602       5.06260340    -153.03417662
C        5.28892498       5.36213790       6.28949248    -155.44172690
C        5.17659107      11.61044896       5.30994947    -154.05808820
C        0.91660376       8.22321628       1.73613975    -152.82734176
C        9.31078257       5.82933960       3.25746648    -153.37339180
C        7.42612946       6.59200917       4.08064752    -153.92593493
C        0.67007916       9.72434541       9.73396977    -154.27912571
C        5.53004910       1.48071464      13.48288863    -149.57484497
C        9.80636936       3.73084946       0.51152256    -153.77297576
C        0.27216472       8.94921839      12.15018581    -154.43771190
C       13.30428219       1.46549189      13.13310413    -152.04064681
C        6.12891477      12.09657406      10.57591154    -154.61767079
C        3.67607194      12.33825395       4.02706288    -155.66284781
C       11.46231514       6.21066761      10.47352732    -153.80941164
C       10.65954859      13.18157837       9.61881633    -153.50955833
C        5.96970616      10.69885936      11.68538342    -150.65862280
C        4.88106899      12.94530710      13.53629705    -151.94032279
C        2.68763656       3.53655938       1.53417729    -155.14554444
C        6.98260910       3.49681484      13.30566484    -150.13074289
C        4.89477353       2.38654319      10.63834788    -153.74307189
C        6.05112011       8.40774645      12.86371692    -154.26759226
C        5.71162419      12.54909522       0.68912590    -156.16939108
C        3.59701663       7.16421130      12.94954995    -155.48005927
C       10.84136767       3.91007945       4.59824834    -153.63355817
C       12.75989583       4.32583827       0.41482214    -152.37925754
C        9.62453673      12.18179709       3.75318882    -153.38621868
C        7.95321908      12.00121155       0.05993374    -153.03533033
C       10.21860377       1.90813114      10.90681332    -153.42722448
C       10.00368231       1.05259191       7.18393446    -152.74912532
C        3.33530180       8.27723470       6.79581517    -154.23089152
C       10.18575894       8.93874004      10.68313505    -154.43301156
C       11.79058717       4.51711905       7.39565683    -154.83300337
C        0.43020891       6.82775179       6.20631632    -152.26410338
C       11.35492897       3.27746075       1.22933041    -155.24725797
C        3.13148224       7.18960063       0.72677613    -156.33921442
C       11.07224388      12.15604176      11.83480500    -155.22319513
C        0.12105006       7.20011965       7.85944256    -151.86919913
C        2.59396849       6.09742549      12.99329335    -154.73110007
C       11.59426377       1.02658309       0.30278103    -141.30535296
C        1.79608189       8.15828574       8.46240197    -153.95619854
C        5.25631060       4.06614320      11.88796943    -153.11087007
C        8.15547976       2.13912934       9.78873374    -154.44504842
C        5.21832827      11.17088680      13.22139069    -154.28375602
C        4.54188483       5.42888487       4.72397502    -155.60860010
C        7.99305851       8.03120351      12.12787356    -155.49046502
C       12.35701467       3.72041177       7.83277902    -153.87803351
C        8.98463875       8.61982127       2.22107196    -153.69146701
C        1.10598000       6.19389954       0.60956768    -154.06645839
C        1.13554983      11.14181038       6.34269757    -153.84367205
C        9.65057672       8.01867829      12.72415014    -153.86458139
C        7.21658950      12.75319944      10.84010701    -155.91655745
C        4.89457020       1.10405242       2.81463745    -153.05116865
C        0.41555820      13.10324150      11.59983505    -152.80427031
C        7.24169417      12.26860611       0.71549123    -152.22553379
C        7.13593465      12.24177990       4.68161428    -153.54425827
C        2.69857580       7.98156350       2.04963635    -154.98952061
C        8.93949915      13.27223713       0.11188197    -155.91301418
C        4.07853287       5.69877363       7.04359501    -153.80971973
C        6.55732081       7.89171806       0.00253511    -150.36311901
C        6.27839058      10.82191562       7.13007870    -155.82670073
C        0.32384618      13.22164824       1.93029428    -155.26416864
C       10.32730482       8.16986208       1.25671104    -153.07667671
C       10.10633764      12.07489891       5.76255196    -153.59053598
C        4.91692312       9.63650618       7.07588407    -152.57651013
C        0.80937483       7.54152689       0.95452374    -154.72231573
C        0.24671167      10.80566265      11.55824697    -153.31363589
C        0.44825256      13.08976739       7.20602982    -153.49031360
C        7.16936236      12.74615061       7.09063238    -151.39170716
C        4.40310426       7.04763453       2.32902747    -152.49693625
C       12.73923734       0.92411076       0.34735808    -155.45645260
C       11.36235735       2.28643628       0.15611662    -155.72170247
C        1.10256267      13.13784853       3.33555935    -155.40997583
C        2.22794457       9.25513750      12.63980821    -151.21639617
C        5.11251452       9.40081779       4.44706455    -152.96327064
C       12.19417320      12.93817694      11.17762385    -155.44522625
C       10.44632156       5.26478275       6.52954572    -155.33295604
C        1.71775857       9.15797213      11.74561023    -154.62242038
C        7.08344800      12.41877325      12.11308458    -155.91054079
C       13.14832688      13.52270095       4.73789646    -155.04313579
C        6.76015082      11.21461664       8.34849563    -152.95167380
C        5.68459464       0.80126055       2.10328877    -155.44063257
C        8.14273765       4.96850156       6.61944538    -156.45693717
C        1.18881863      10.83766703       3.60943341    -153.23994668
C        6.04758214       0.16577080       9.65224404    -154.55821909
C        9.83513400      12.91739645       6.33505230    -152.53882794
C        7.41151669      11.37672611       7.39304063    -156.22218169
C       12.77665035       7.73494943       5.74685477    -156.96898406
C       10.32956858       7.92717909       3.73964694    -153.57631223
C       11.87074047       1.78717597       8.21159927    -153.56392102
C        2.81591166       1.30184116       0.82098100    -153.09303511
C       10.94067480      11.43013453       5.79743010    -149.07334891
C        9.04332024       2.76259813       8.02235181    -152.81729944
C        8.19614607       4.36655881       2.17869767    -149.09559428
C        5.87847806       5.59785340       9.29718647    -153.23328063
C        8.57709453       1.67932891       3.04742498    -156.16732221
C        7.98614524       6.48763231       1.29942016    -151.41124950
C       12.48453067       8.74614439       5.70134916    -151.80929412
C       10.70818550       2.25478433       6.95704355    -151.66532252
C        2.57443510      12.42466986       3.68302588    -155.23162638
C        7.30623161       1.78628131      12.13614238    -153.32563694
C        1.05865661       1.62194874       3.56091850    -154.18477590
C        7.37354791       9.19187428      11.65198282    -156.86300622
C        0.44718710       5.87092769      11.63189366    -154.63502928
C        4.13847502       9.70840422       2.34686642    -152.01662135
C        0.07864146       9.20403350       6.32773237    -152.78340915
C        9.50744486       6.22008864       6.85456444    -155.41988590
C        9.43514016       2.06992884       2.57863729    -150.09859850
C        3.86194410       8.07367270       7.82181267    -155.98094850
C        1.35358633       0.68952036      13.30658661    -153.18793506
C        0.60992555       6.81617544       2.40200994    -155.97054588
C       11.21693462       0.68397619       0.76518410    -136.97404512
C       10.83479328       5.43438838       9.91665640    -157.82091612
C        5.03842050       4.60497184       3.38505026    -155.73225266
C        6.79403941      11.32681499      11.52895367    -154.53598624
C        4.52176856      12.46722038      11.07868271    -155.66780289
C       13.48612838      10.14408953       0.36400551    -153.39118048
C       13.00707923       6.21617112       5.33826678    -152.95256140
C        6.00176477       3.91551518       3.84963576    -154.21800786
C        0.20252230       4.84920015      12.53158159    -155.42175618
C       11.17500765       1.14871758       6.76475967    -156.01338841
C        8.46809526      11.01857790       3.98563746    -154.26861560
C       13.12113467      12.24644297       5.55880019    -154.65857914
C        5.68801061       2.85148113      12.92909479    -155.39579396
C        5.47031029       5.86992458      10.98395731    -154.78016349
C       12.98791184       7.02673205       6.75491842    -156.74629851
C       11.39013244      13.24557359       6.33998648    -152.74661208
C        2.82262160       2.65397841       6.03314560    -151.98443036
C       10.22330750       7.50119947      10.19930082    -154.78529393
C        8.75697518       9.37194471       2.84786183    -146.57037359
200
Lattice="13.55543733162543 0.0 0.0 0.0 13.55543733162543 0.0 0.0 0.0 13.55543733162543" Properties=species:S:1:pos:R:3:gap17_energy:R:1 anneal_T=3900 density=1.6 run_id=501 time=1 pbc="T T T"
C       12.30854043       7.60134704       6.54972977    -157.13380449
C       10.06699976       3.83816786       5.77889982    -153.08252169
C        4.81905286      12.75752362       9.82721763    -157.14803847
C        5.79789099       1.73776640       9.89315127    -154.65776243
C        2.27381617      10.06529177       9.19913999    -155.30454662
C       12.28801750       9.45375177       7.98401703    -155.70039602
C        4.69301440       1.63155955       1.28934982    -156.28464196
C        0.67919925       2.93117355      13.18540100    -157.06907078
C       12.33085268       3.72691838       6.73598147    -156.62498141
C        0.07145396       9.93136405       1.98691534    -156.12545027
C        6.15881806       3.85042197       8.02110471    -154.41768974
C        5.40022868      11.61833823      12.13484105    -156.28897646
C        7.98548102      12.52579342       4.06523499    -154.84271059
C        1.78664731       8.76830753      10.48834341    -156.14089040
C        1.30067946       6.28434141       1.10471528    -153.78650040
C        5.87038547       7.64185068      12.17145429    -157.41746550
C       11.49141867       5.61624813      10.62035982    -154.44483654
C       12.03568303       3.99297095       8.08074863    -156.39471781
C       12.33220822       4.67273547       4.88070299    -155.17867314
C        0.90989789       1.57121074      13.30125933    -157.14210047
C        3.27850452       1.36401588       7.61631224    -154.72739534
C        8.04155987       0.24277246       6.95806020    -155.16632330
C        2.79461607      11.80869723      12.71604399    -156.84728535
C        9.16592917      11.85319973       7.50359878    -155.99946655
C        4.11276035       7.20670759       0.85756712    -156.11071282
C        6.87492471       2.55172975       8.45494648    -155.21991814
C        1.95994002       6.34687265       7.09486168    -156.92344148
C        8.94496199       6.21987175       7.43324606    -156.27143874
C       10.02725521       7.81428940       9.71398906    -154.93380711
C       13.08484677      12.79766127       7.27170591    -157.21811781
C        5.81285619       5.29943045       5.17797373    -153.48404322
C        5.06976067       8.61499553       8.42538207    -156.45089133
C        1.57735135      10.86508968      13.25942725    -156.06243219
C        6.47205711       8.30059072      11.07987559    -157.02448522
C        2.36048964      11.75307927       6.22804568    -155.51875478
C        3.27499366       8.61992971       6.90394690    -156.31253568
C        1.01348041       6.10153279       8.39660388    -155.67857771
C        1.64224123       8.43499288       6.39858664    -156.55445797
C        9.27402023       0.79046771       5.61380815    -156.81088158
C        1.13407771      13.74250237      12.72947742    -158.35173072
C       11.50950162      13.51807855       6.62774131    -156.21901225
C        2.63296748       2.82941288       4.90530611    -152.71150013
C        7.78198680      11.83010127       5.99272329    -156.09775209
C       -0.09952470       5.23131438      12.40689868    -156.82511506
C        8.20563488      11.20092564       0.56554505    -155.22921725
C        4.60148809      11.91418565      10.79971181    -155.38092667
C       13.21594140      11.48361073       6.90618355    -155.40819662
C        8.06922651       8.01435410       4.91404936    -156.42678856
C        0.13630534       3.83900830      12.29814341    -156.09370133
C       12.23074577      12.81573067      12.09699427    -156.03179874
C        4.78943423       4.88033699       5.84095661    -156.85395421
C        5.84261038       0.20412998      10.30270170    -156.14543179
C        3.71291562       1.14422260       2.33615763    -155.46813224
C        0.02723884      13.44641095      12.18801904    -154.30605658
C        0.28862644       3.65691811       1.41120236    -155.54488451
C        8.88192920      13.81665061       2.06735330    -153.51427820
C       11.17766451       9.85149541      13.54078390    -152.84628131
C        7.25011210       7.71636492       2.75325843    -154.41752160
C        6.64704425      12.45774513       9.25567972    -153.91303883
C        7.94436738       1.25003092       5.06202052    -155.82744693
C       10.76495567       8.12499358       3.72751482    -156.22162088
C       10.54358182       0.67839542       7.55455367    -157.77065613
C        3.17908894      10.62624288       2.44129360    -153.97087257
C        1.26140935       2.78553393       4.11610855    -156.42129546
C        4.03634835      12.05996082      12.48282269    -156.12192972
C        2.99720208       8.35643912      11.23852843    -154.21888803
C        4.34969584       2.37736615       6.79904137    -155.97056954
C        1.43312150       5.33318349       6.23174632    -155.25125368
C       10.34672976       1.91680662      10.14194777    -156.15032173
C        3.25940491       5.45164445       1.50813729    -153.92820533
C       10.54726890       8.59460815       0.05325931    -157.49523627
C        6.18382785       1.43283684       8.44482057    -156.72706632
C        2.47739173       2.10174345       1.84829744    -154.43461676
C        3.80933544      10.43633120       3.74100248    -157.86081214
C        3.64643975       6.99033570       2.11958240    -157.61796994
C        1.17335052      12.61980038       1.06754627    -152.92029236
C        1.47895243       8.16377569       4.98991915    -156.72611883
C       12.08380483       2.57385222       6.11942596    -156.00515265
C        8.87886567       9.23325903       8.54605258    -156.23009610
C        3.85516638       6.90111381       6.19320821    -155.99499465
C        0.53643203       6.40854989      12.44665678    -154.12372452
C       11.37557390       4.23234642       1.53993835    -155.18402790
C        5.79234682       2.38597386      12.06139770    -154.41935127
C        9.37476424      11.24084641       9.37018250    -154.02890600
C       12.45645736      10.56093278       7.21016423    -156.47165678
C        4.69834169       2.04688459       0.07061407    -155.57397354
C        7.64141691       2.41566027      11.01769680    -154.45815326
C       10.55087465       8.02411402       1.36093880    -158.60459647
C        8.32367563       8.99271779       2.84375453    -155.88196425
C        5.61003974       6.57067292       9.83146048    -153.62081401
C        0.86333360      12.60913225      13.31953206    -156.67768440
C        9.29196763       5.84469791       3.67703438    -156.77133638
C        2.38528253       9.11155831       4.16466412    -156.16459961
C        3.15852534       4.26467614       9.72332875    -154.19964005
C        1.04333626       9.79068572       9.87317056    -156.12124324
C        9.11079921      11.13542577      11.79969642    -156.20175367
C        0.98888135       6.55035332       4.57872851    -157.51083825
C        3.76418228       4.87677191       7.41037804    -153.98377524
C       12.83435584       4.48457244       2.09703971    -155.64135564
C        9.69398123       9.43438105      12.28466930    -154.12415716
C        8.66513709       0.17465503      12.29849585    -154.58408620
C        3.32518944       6.11779931       7.51310114    -157.15064179
C        9.30068377       3.38778845       9.42535313    -155.38933324
C        5.36677386       6.51704761      11.25249053    -156.06459483
C        0.54812089       0.92920625       1.17390087    -154.66679834
C       11.07359942      12.06448833       6.76082859    -154.86689098
C       11.70384592       1.44918469       2.38319499    -155.63536194
C       12.70429142       9.37954931       2.60511106    -155.56360775
C        0.78783117      10.05545052       0.58812027    -156.00012895
C        6.56477630      12.16897365      11.73769385    -156.50184694
C        5.94110418       0.23105514       5.96410776    -157.00798833
C       13.13866186       6.63359726       6.92769602    -154.17673737
C       10.73310039      13.23021528      12.61723840    -155.06077780
C        8.85221568       3.15406560      10.77624735    -158.04506525
C        9.49601762       4.92832324       7.68745118    -154.85111361
C        8.23622950       6.59972222       1.51488790    -154.20468637
C        9.40984571       4.77301859       6.35072239    -157.85203457
C       10.49720867       8.82533525      10.13247252    -155.51499928
C        8.19851827      11.11799348       2.00087744    -157.39727409
C       10.17976744       0.49660887       0.42719554    -154.09559643
C       10.28349365       1.97443078       1.59177434    -155.73785363
C       11.21182422       8.58030717       2.43303834    -156.86062264
C        6.50327528       0.74666195       7.14791766    -156.82432902
C        9.55276069       2.15722585       8.76105537    -155.36019703
C        7.28657623      10.57791774       5.82963782    -152.02495258
C        0.27249547       6.76999207       3.49010489    -153.92177840
C       11.61272628       6.83730837       3.80392682    -156.46725260
C       10.32017466       1.36134546       6.14114177    -155.35361197
C        1.50133246       5.01949711       1.36181990    -156.43223776
C        2.62008982       9.51854676       2.75366509    -156.21139457
C        6.28125077       9.61167262      10.88296931    -153.73083119
C       13.19215161      13.65262982       8.89499664    -156.53577517
C        0.45872549       0.09025129       7.65644989    -154.73546068
C        7.92182469       9.22951773       4.40344315    -157.06030195
C        3.70982498       8.99114536       8.42624962    -156.22561317
C       10.35646256       6.22984856       4.31774568    -156.32632790
C       11.92176314       3.79727110       9.23981986    -156.27726861
C       11.02021811       0.90452180       8.87328083    -156.12779660
C        7.78887296      10.70871416       4.90334057    -155.12178771
C        9.32078649      13.19348004       7.77905882    -156.06125952
C        1.95146787      12.29669298       7.68437409    -156.50048252
C       12.66130713       2.17498348       1.66581414    -155.07246972
C        1.95999424       8.97520417      -0.02458889    -153.29580181
C       12.31003153       5.62415095       3.79114405    -155.85878283
C        9.16700005       5.77345054       2.17243505    -157.90158538
C        3.39260063      12.19993426       7.44208420    -156.16179525
C        7.60301436       8.46348641       8.11662988    -157.37068372
C       11.65641545       4.20371734      10.54096562    -155.75665217
C       12.70427787       3.60779320       4.24369232    -156.92295756
C       13.09714155      11.34675504       3.59948372    -153.23549261
C       12.47635674       2.29439332       4.97399151    -154.44023323
C       12.39282814      11.14338281       2.68632168    -156.13766079
C        1.40340798       5.16428274       4.80609386    -156.94852553
C        2.25180214      11.76838336       8.79670617    -154.11718409
C        3.66023919       1.87014880       8.71693242    -155.35101921
C        7.32899119      12.05730395      10.37919503    -157.81105252
C        9.57248385       3.24967210       1.76213908    -154.59000655
C        8.74060021       2.29812107      11.83365279    -154.44802329
C        9.65484668      10.60765837       7.85567415    -155.63560975
C        5.21404475      12.88037655       6.64953845    -154.63769687
C        9.93346514       0.73772757      10.95841887    -155.47252993
C       10.76036038       0.56301831       1.63275243    -158.05601515
C        3.47531591       6.44929753       3.38002119    -153.80907433
C        0.16131784       8.36769013       7.10219517    -156.77323333
C        7.63011168      12.87813991       5.27222468    -156.03200831
C        9.81813548       6.91979320       1.46332302    -156.25737069
C        8.98798694       9.06659493      10.19297044    -154.97421972
C        5.06919134       1.41731586       5.81689571    -154.61239247
C        4.73194562       8.04836469      13.30079844    -154.94306237
C        2.03007585      12.80869540       5.63412775    -157.15092019
C       11.32804854      13.39511717      11.20707981    -156.25704081
C        1.19735991       7.14681967       8.88126499    -154.15801882
C       10.05257677      12.45264828       1.77077389    -154.13102189
C        2.87254628       2.82157784       9.95547917    -156.04275882
C        7.87153401       7.08077758       7.72299353    -155.96673428
C       13.75131340       9.05508636       8.53031471    -155.85193331
C        6.35176616       8.83520361       8.93020012    -156.25402228
C        7.25289097       2.08759157       6.07695678    -154.44175183
C        1.65358713      12.89311866       4.35174271    -153.43589651
C        8.43359667      11.38393760      10.83193308    -156.32454794
C        2.57894906      13.26764184      12.51314620    -154.42344253
C        7.03200511      13.57793936      11.58447674    -155.85611624
C        8.94509754       6.08414116       4.98057945    -155.75366069
C        2.17067285       9.42628846      12.58447491    -154.70419596
C        5.47249272       0.76806870      12.26655924    -155.15812076
C       11.57500149       8.60200942       6.59785157    -156.49773700
C       10.04974368       4.42168877       1.64152279    -157.59121830
C        8.87737458      11.76206653      12.92638371    -155.71409869
C        4.11873830       7.38565292       5.01216362    -155.77944732
C        2.35077039       2.29734841       3.07604051    -157.06280041
C       11.01803568       9.04178848       5.23239881    -154.09759447
C        8.87393149      10.12955810       2.75258066    -155.59123616
C        5.48656326       3.44084444       6.64223207    -156.20518418
C        7.97530089       7.10384893       5.81202931    -156.02975450
C        8.52203234      11.93472213       2.94487809    -155.66575097
C        4.65107388      13.00011173       8.20562132    -155.23436602
C        4.70574296      10.61042368       4.93256609    -154.80351777
C        4.24351610       8.98836650       5.36402211    -155.38563984
C       12.31949322       0.57190390       9.70184339    -156.00668631
C        0.42537098       4.09639894       4.41332506    -156.96965488
200
Lattice="13.55543733162543 0.0 0.0 0.0 13.55543733162543 0.0 0.0 0.0 13.55543733162543" Properties=species:S:1:pos:R:3:gap17_energy:R:1 anneal_T=3900 density=1.6 run_id=501 time=2 pbc="T T T"
C        3.88243992      10.59122918       2.51191743    -155.54571046
C        1.86524173      11.93586079       0.74643422    -153.48724344
C        7.37517457      12.87633703      10.37279687    -153.45772749
C        8.86822466       9.89918344      13.27231847    -155.91485039
C        8.77463792       0.37323948       9.29176430    -154.10317743
C       12.84261110       2.39062337       0.64884185    -156.25961303
C        4.02736110       5.32880508       9.17078202    -156.08833092
C        9.95500473       3.75087084       3.68920716    -154.81702479
C        9.56840366      11.16789104      10.84683051    -155.78022837
C       13.54102790       4.78073164       0.61519861    -156.86967126
C        0.02329258       8.70101834      11.45307033    -155.89596740
C       13.50623109       9.99207885       0.39903548    -156.39099801
C        1.35443625       4.79618484       4.59774679    -155.38264610
C        4.08307394       6.31729468       3.34431617    -155.46730317