200
Lattice="11.681721770322822 0.0 0.0 0.0 11.681721770322822 0.0 0.0 0.0 11.681721770322822" Properties=species:S:1:pos:R:3:gap17_energy:R:1 anneal_T=2700 density=2.5 run_id=198 time=0 pbc="T T T"
C        6.46527228       5.43962879       0.82901208    -101.81330570
C        8.32643923       7.83729050       7.35845672    -155.88348748
C        8.97553411       0.23635511       4.79581406    -153.96960885
C        2.75745874       8.76943349       3.87118241    -153.85451088
C        5.81922634       5.14802965       6.50777038    -153.65106239
C        9.16065435       3.39887872       1.00955776    -152.87398669
C        1.80664836       8.60785191       6.22298169    -152.22225721
C        5.17308694       7.90840882       3.53688658    -154.46312218
C        5.54194899       6.24238503       6.54918208    -153.91274464
C        1.58350411       4.40781735       1.06369903    -152.62216507
C        9.06869584       0.15524307       1.95918828    -155.04073207
C        9.73315217       8.59176618       0.84154773    -121.00724277
C        5.32410824       2.95876985       3.94532630    -154.52663799
C       10.71198700       6.04621387      10.70057396    -155.38456475
C        3.24011244       4.65120602      11.65102221    -152.82067603
C        5.36698016       4.01751934       0.02058903    -152.58561442
C        9.27046253       3.11514138       3.97262649    -153.39283071
C        9.69182224       1.98982944       0.19457309    -151.53457134
C        1.67652566      10.03639799       0.22691277    -153.74755063
C       11.14491161       9.00207498       5.61202764    -153.45156295
C        9.33581009       1.04020476       6.98419772    -153.97269152
C        5.79753338       0.61242478       1.05867706    -155.23445927
C        4.22212470       8.35586549      11.01282638    -154.98896085
C        0.70881417       7.71877943       3.06054101    -155.11205178
C        5.30122375       5.69537672      11.41820549    -148.02632483
C        6.78445196       9.96300173      10.84251856    -152.03714874
C       10.28007870       7.22571732       2.95915535    -153.98087446
C        4.71247665       2.01385874       7.04030503    -152.66124025
C        4.05720215       3.61536439       5.41853160    -154.08950683
C        6.44049535       2.07044500       6.63368766    -147.86791463
C        9.58877777       3.25323101       7.42218052    -153.20519032
C       10.77240487       5.65276180       3.25314924    -157.76782031
C        5.23342303      11.14690918      10.48105104    -154.05105075
C        1.91141004      10.35749347       3.09018922    -149.60827434
C        5.26550104       2.01090327       8.70114214    -155.97912762
C        6.24650867       3.44117824       5.98101818    -155.15200725
C       11.33465782       3.75418997       2.67929634    -152.80137230
C        7.19193378       7.14754324       0.80853168    -135.56253325
C        5.64936242       4.55694621       4.30594105    -155.11226507
C        7.94454039       7.35020943       8.59281754    -153.80876499
C        9.21622430       5.00395897       9.01855789    -151.99764742
C        6.80501179      10.09907042       1.28185869    -152.58423777
C        0.27113510       2.93165658       8.18338487    -154.15978613
C        4.60971255      11.31167987       3.61500226    -156.03435928
C        5.24059561       5.94055270       8.94212438    -155.22043166
C        7.56236118       0.72249346      11.67487628    -153.59115978
C        2.69088461       2.49536763       3.27567160    -153.60090194
C        8.32877558       6.72251547      11.53176351    -149.56942956
C        3.92836444       0.64071207       3.99248541    -155.14573181
C        6.20110182       5.32888607       1.17464385    -102.43654715
C        0.54536819      10.00597878       9.76441246    -149.51417812
C        2.64106207       4.87812347       0.84931841    -155.06800441
C        7.57531621       4.97658870       5.76734781    -154.13831510
C        0.26255955       0.06941618       2.10623780    -154.33190024
C        4.18295589       5.53728798       4.72862079    -155.90275896
C        4.52973948       9.33736376       1.25487392    -147.92373833
C        4.47475361       6.78516455       6.54938067    -156.45068305
C        0.14648996      10.90022627       9.15220847    -155.02859654
C        5.81323361       7.48915183       2.20054434    -153.47349349
C       10.82906122      11.25994152       8.31069227    -151.19832095
C       11.42926808       1.97968971       4.36323990    -154.20828116
C        3.69121381      11.44788875       5.08227324    -154.99374989
C        8.58217549       8.83952382       1.28822523    -151.56481689
C        3.65760549       6.33281323      10.54083810    -153.96448330
C        3.79377933       5.04202971       6.87720483    -154.15511508
C       11.00202079       6.50529386      11.64143151    -152.10687599
C       11.11292706       5.73757110       6.26919458    -152.02113402
C       11.02022091       0.25225160       3.49486743    -156.47144163
C        8.81263249       6.67936319       8.49717928    -154.66698725
C        5.21072545      10.07794987       1.47277307    -149.66336655
C        8.90117995      10.64877720       1.52031768    -151.95977086
C        0.88996964       1.50350768       3.78005330    -157.24907763
C        3.47109513       2.39011532       1.60616665    -155.07506898
C       10.90812311       5.77532643       9.52615206    -153.95424515
C        8.16324558       9.06363765       5.72104146    -155.55729713
C       10.48754608       2.76820593       9.77947020    -153.37933271
C        1.61541858       3.70644677       8.73358228    -153.35615169
C        4.54310337       4.06994691       4.11747984    -157.16000778
C        1.04184137       9.82872034       5.18315659    -153.94954298
C        7.76447833      11.06058126       8.26049592    -154.37678466
C       10.54401552       1.53643846       0.62461816    -151.09159052
C        4.42223259       9.85116092       3.96832761    -154.82349764
C       11.38278651       0.75271758       8.01298359    -154.44261213
C        5.64507523      10.05918903      11.43169788    -158.37441672
C        6.85828044       7.72848694       3.62382196    -154.02595298
C        2.83794581       7.76790107       7.34356253    -156.16722923
C        5.63330005       8.67657548       0.29687227    -145.14928490
C        2.29955861       3.82308877       1.92616406    -155.60697935
C        0.62587161      10.01621197       7.22758639    -152.87413710
C        9.17406497       5.62292668       8.15985788    -152.75653790
C       11.29213635       7.72154800       7.84970817    -153.43834117
C       11.11470268       2.28717599       6.20472315    -153.52891908
C        7.11422697       4.64436053      10.66841418    -154.09213424
C        6.98314637       4.32683965       8.18336151    -153.68556558
C        0.64068520       5.54465915       3.65019928    -154.23534642
C        3.99561611       7.12273126       7.71110454    -156.16238581
C        1.71276236       3.07589080       6.15476043    -155.93234245
C       11.37411867       4.58963167       9.91102975    -153.30977649
C        1.06316168       8.10392580      10.26901611    -153.18627410
C        6.48098419       0.79951807       8.42274335    -153.08969011
C       11.03506838       1.93062648       7.38215894    -155.24014739
C        4.80312681       2.08181132       2.27587976    -154.98579705
C        3.80464333       1.13496571       3.06701269    -155.42466530
C        2.47220278       2.27259720       4.37515525    -155.24129470
C        3.79487741       3.73371191       1.42624477    -155.99236750
C        0.70690654       0.50947026       9.25283482    -151.14053058
C        6.69203786       6.65361668       1.05784065    -115.56372241
C        1.89373560       4.45920524       6.42342835    -154.38885154
C        3.72331518       0.66364212       6.22965195    -155.14097260
C        9.28560205       8.34752474       8.12808360    -155.46897629
C        7.44256512       5.39880117       0.42805099    -140.90943467
C        8.28505089       0.53109429       9.65343610    -153.48128878
C        6.79288616       2.84232645       0.52655828    -155.19074857
C        3.81634841       7.17591814       9.33424474    -154.74063482
C        4.43901923      11.11866278       9.14945158    -155.25760063
C        5.67145256       9.15463826       0.99644736    -146.63669459
C       10.42743194       8.85041118       0.00837650    -154.07536338
C        2.71922447      10.33691028       9.06054199    -153.20155651
C        7.14942399       3.40455604       2.01235180    -153.64761731
C        8.80210726       1.41654895       9.58689701    -151.93712143
C        2.23992342       6.66873283       4.09617238    -153.60145396
C        0.81288195       1.75479320       7.89444916    -156.55606663
C        1.18097534       6.10030024      11.05513758    -152.20254548
C        6.63431847      10.71647278       6.55231279    -156.37921929
C        4.36132410       5.30558103       3.22486779    -153.95272943
C        0.85226805       2.01786557       9.41271086    -153.26670950
C        6.95097490       1.82050288       8.33569116    -155.17599137
C        9.73642305       9.08089155       7.33387838    -151.67318588
C       11.67461928      10.01535920       8.16089756    -150.94317217
C        4.08820544       2.17088445       7.80930109    -152.47783144
C       10.85576563      11.25289745       4.77893397    -154.01967808
C        4.75411031       9.46818736       6.61316287    -153.53491761
C        8.50356918      10.96397342       2.38559449    -149.68404510
C        1.35496291       5.74699825       7.99280926    -154.57300292
C        6.71128934       3.19309351       4.32394259    -155.51810815
C       11.13918757       8.70753204       3.41301360    -154.61917484
C        9.68663555       8.66194997      10.25498636    -153.74047078
C        5.30226342       2.54229311      11.54550121    -155.84987742
C        6.00025798       5.90891860       2.94868853    -154.83399680
C        9.37592512       8.62883228       0.53877619    -121.11483628
C        4.74920399       7.91266097       8.95086231    -155.02628901
C        5.61570738       5.28217086       0.57499771    -132.02064936
C        9.44971856       7.09059484       6.79470851    -153.75040812
C        5.39911658       9.47707715       3.04787803    -155.80362066
C        7.57737219       0.20865891       6.23566804    -154.85288545
C        8.11225487       5.95760801       0.48915691    -143.45475529
C        6.51334256       5.81440179       9.07832157    -154.78868582
C        1.02626613      10.00573347       1.89943628    -155.99417538
C       11.65676961       9.85128942       0.43753188    -151.68053392
C        8.81452493       0.09850425       8.23932864    -156.20404782
C        8.55342677       1.07586088       3.00153664    -153.93795351
C        9.44363238       0.96886682       1.23625325    -155.04873163
C        5.99786323      10.31511219       5.17992075    -153.99934084
C        3.90405478       6.52488410       5.57020707    -153.55285406
C        9.14101738       5.81748576      11.43424449    -155.16222644
C        7.56463911       4.00521849       4.70863337    -155.95567812
C        1.36938983       0.24401949       8.50470231    -151.18666541
C        1.91776490       0.88116512       7.51038920    -152.94267108
C        4.99553645       9.44966015      10.03938851    -155.15300197
C       11.00131989      11.30457738       1.98449089    -152.21658002
C        7.37999782       1.28105265       4.18214985    -154.53333435
C        2.08773395      10.53992692       1.26195304    -154.28188174
C        3.49659632       7.16239071       0.30905163    -155.03629004
C        9.44129603       6.67931647      10.50214823    -153.08015437
C       10.42586659       2.63058356       0.94629890    -153.50927127
C        6.30172817       6.38288109       0.67905732    -120.90609665
C        5.16896329       3.87579669       9.72242835    -154.25059269
C        6.55676352       0.99174781       2.32071421    -154.20826313
C        6.70002816       9.68891349       8.99705184    -154.16073921
C        0.47195908       2.77411688       6.20999161    -155.60515107
C        8.95753257       9.84326408       5.07865190    -154.33798594
C        5.94794723       9.08475820       7.19059038    -156.53603898
C        0.37997020       6.01796747       2.19067328    -155.58316866
C        8.27018006       7.00912652       5.06956352    -153.59753301
C        4.80604724       5.88001802      10.18255969    -155.78308027
C       11.43694297       8.99413141       1.06424223    -152.87346857
C        0.98213492      10.61283255       2.76363837    -151.31636762
C        4.19170550       3.00916480      11.45225771    -153.44156109
C        7.34288499       7.35109724       2.18077887    -152.86268198
C        1.62052349       5.64599808       9.69781496    -154.71799008
C        2.06192903       8.88629743       7.15797501    -152.72246302
C        1.70984193       6.84850284      10.64385920    -154.56895060
C        5.75443951       8.77909427       8.76675837    -156.95046542
C        0.38055195      11.21723315       7.96901359    -156.96095273
C       10.67541153       0.54043266       9.64314450    -152.59190062
C        0.30339184      11.09545120       6.63972711    -151.14115253
C        3.46778920       2.04562134       5.27061764    -155.23309592
C        9.77114113       5.22099368       4.31324213    -152.68515318
C       10.23451999       5.01349126      11.44130025    -152.14606152
C        0.71897376       1.72098630       2.54239824    -153.81063238
C       11.46467538       6.42880194       0.97764797    -153.72830576
C        0.51100991       8.55245719       1.56157752    -151.28402746
C        1.54453389       2.19018265      11.43098529    -150.88658800
C        4.69455689       1.51487400       0.78711909    -157.06135656
C        6.69468961       6.74657982       8.46804507    -154.23275805
C        3.11723241       6.65421245       1.84740589    -153.05255581
C        3.80737685       0.04048803       2.22348724    -152.60662545
C        1.25550473       7.04956864       7.18198095    -156.05803154
C        3.66077124       0.59287074       8.14496369    -154.72182622
C        7.12708854       2.00855524       7.09404095    -146.93670718
200
Lattice="11.681721770322822 0.0 0.0 0.0 11.681721770322822 0.0 0.0 0.0 11.681721770322822" Properties=species:S:1:pos:R:3:gap17_energy:R:1 anneal_T=2700 density=2.5 run_id=198 time=1 pbc="T T T"
C        6.52540978       2.76445609       3.24998350    -156.29941041
C        7.42656116      10.77889990       3.37291025    -156.18077870
C       10.47412378       2.08682278      11.12907120    -155.72251484
C       10.59465579       0.66448554      -0.20981540    -156.29160057
C        4.75706578      11.16027307       1.67125721    -154.42761196
C        3.63503641      10.95022403       0.85404834    -157.04757354
C        6.80129700       4.88596190       6.36836071    -156.90389913
C        3.53023968      10.31665417       8.29520231    -155.16401093
C        2.04216355       4.43748892       4.03184113    -155.75429250
C        3.93556038       5.77712541       2.48853383    -155.42544727
C       10.83937618       8.21103551       9.67065496    -157.28325263
C        1.35039535       6.41741226       6.43687401    -155.02685338
C        8.94227624      11.47524734      11.37998290    -156.20932415
C        6.59233436       2.59130961       1.57269852    -154.75702661
C        4.03474988       7.43611681       4.78873493    -158.71951236
C        6.04657601       3.80099863      10.67478072    -156.51780101
C        1.89391082       2.14034843       1.97714309    -155.33015715
C        9.68257032       2.88607450       9.14170660    -155.25875947
C        7.84459158       7.09571144       5.08090648    -155.84845241
C        3.48080264       6.96800686       3.45984563    -156.72258979
C        2.02786513       7.33581755       0.84415860    -156.03670841
C        5.64203798       3.64315521       2.09910027    -156.68795927
C        6.95090481      10.14474596       0.83952329    -155.44070613
C        9.34554096       0.52150010       5.69274833    -155.42865408
C        7.69385064       1.18234211      11.15509807    -157.36684121
C       10.91056459       8.68700726       7.41082588    -156.47093446
C        2.19695805       0.93573979      10.30693498    -156.78371916
C        2.34373888       6.61178443       9.75801087    -154.90797884
C       10.88596288       4.06133748       4.68108787    -157.06069348
C        9.80944550       5.16837921       4.57571874    -157.42341967
C        6.40582400       9.45022087       2.23984165    -156.53186647
C        4.61493428      10.22096919       7.36437936    -155.52635888
C        6.07498595       6.61206479       9.53819592    -154.93235044
C        4.55262397       5.50772154       6.71984036    -154.60587747
C        1.57310738       3.58825111       1.81972021    -156.72482920
C        6.55124975       8.78879010      10.48848062    -155.21728150
C        4.05097579       9.62263140      11.02998683    -153.92207544
C        7.79841373       1.97234190       0.67856201    -157.06506819
C        4.62409275       3.46010262       3.02001712    -155.22930430
C       11.01115590       0.48630190       7.32010563    -157.19781693
C        5.60071973       8.15768508       9.41288609    -155.72131904
C        9.01185258       2.93131781       0.58301721    -154.93594493
C       10.82055692      10.62603289       1.61725261    -155.83615148
C        0.63750076       3.35485031       6.87047616    -156.33741249
C        7.97469091       2.44417833       6.46793571    -156.16937775
C        7.98905943       9.73104946       7.00594909    -155.04801535
C        2.71976183       1.95091763       9.87798216    -156.53575943
C        6.33851391       8.32177823       3.08629921    -154.44650502
C        1.74444319      10.24184443       6.46863661    -152.23902581
C       10.79609540       9.06753935       2.38742852    -157.23104012
C        2.46928235       0.30535787       0.92897724    -156.19962663
C       11.32394568      11.13901234       0.27296212    -155.76070720
C        8.13238247       4.03244858       9.87985123    -155.06698622
C        5.49245353       9.55362747       0.58924707    -156.52880849
C        6.07044176       7.30028175       1.36940152    -155.94150146
C        1.43979557       2.36190396       7.67933026    -155.66383136
C        3.71449548       1.95106949       7.27131108    -157.63955021
C        9.56035614       5.95445395       6.34995032    -156.52990223
C        7.34987066       3.55118501       4.37656874    -155.60984358
C        4.39631085      11.03390021      11.13769231    -156.44526042
C        9.60305284      11.48559734       7.21673408    -156.32655222
C        3.56118456       4.32497058       8.74855825    -153.37399694
C        1.74345025       5.22418279       5.36557835    -155.24398458
C        7.64725225       0.17028446       2.69051079    -155.43918399
C        0.03140234       6.53019929       5.75750012    -155.27014368
C        8.06732696       9.70766265       9.02616269    -155.69225804
C       10.32748313       2.63495253       2.00281952    -155.95081340
C        6.34861860      10.78976390       5.95533008    -155.87293451
C       10.48033846       5.48933451       2.25144160    -155.55563007
C       11.54965991      11.02919247       3.45958863    -156.35531433
C        3.27848690       1.24013158       4.89568110    -154.71118562
C        9.83648868       6.34419123       3.87709337    -155.27208294
C        0.40261989       7.25544730       4.26077952    -155.93546147
C        9.49408573       6.96362621       8.00057761    -155.61368767
C        6.33374777       8.34723270       6.26350558    -155.23536241
C        0.12794523       0.86351287      10.19983696    -155.30401978
C        2.74224914       1.81925294       8.44046452    -156.57092626
C        5.43578550       4.31201555       5.19949931    -154.62036722
C        0.46664624       8.88204529       2.00638244    -156.31940810
C        4.52784704       0.00366624       4.66471009    -154.66389397
C        1.39822032       4.47846840      10.82285822    -156.37104843
C       10.08636071       1.92619910       8.39739401    -157.85536102
C        3.14530359      10.24137716       3.48813876    -155.79231429
C        4.53397994       5.33160791      10.46175284    -156.52371929
C        1.50781824       1.37459988      11.52038551    -154.32415464
C        1.12640068       5.97463996       4.01451714    -155.63302997
C       11.31406294       7.19177024       8.25646572    -155.69038349
C        6.23529422      11.61102399       4.88427973    -155.26573265
C        3.89426550       3.15658813       6.57797753    -157.94715728
C        1.10910472       3.67994095       3.17562934    -157.35963529
C        7.49112604       5.37792593       5.38245844    -154.73224818
C        1.34710111      10.09481828      11.52143687    -154.34851799
C        8.13728880       1.27562065       5.63914091    -157.71115373
C        5.10376760       8.10057314       0.42498922    -155.86664974
C        5.00344498       0.55543199       7.52735106    -155.66973873
C        3.98505584       0.83453753       6.69279717    -155.32755131
C        0.08048706       4.87105603      10.10190908    -157.09478954
C        8.90848102       5.40655783      10.22331722    -156.69839465
C        9.17482428       4.78868821       6.78178853    -154.45786661
C        9.19948439       1.09772672       7.44570750    -155.39847001
C       11.35410788       1.48250395       8.40552449    -155.35550633
C       11.50468528       3.06490998       3.66848118    -156.61872547
C        9.77034677      10.63558854       2.66089763    -155.24443848
C        0.70270580       1.93286937       5.11428115    -154.29112735
C        9.21608412       7.20020444       6.23895060    -155.44031814
C       10.14554031       0.69156027       2.83066809    -154.95058262
C        1.01735998      10.40974581       2.44006636    -155.94428736
C        9.30637215       9.52038129       5.56106029    -154.84419556
C        6.32920358      11.42700183       9.63850686    -156.39904020
C        1.55327182      11.15807691      10.18862250    -156.56920907
C        4.38929014       2.81531831       0.83179233    -156.54726184
C        8.45927209       4.42343581       2.59188202    -155.39417807
C        2.19050974       5.84619943      10.92441911    -156.46174942
C        0.33555045      10.27880539       6.24188271    -158.39978475
C        2.19170128       7.37236965       3.21162072    -155.91211962
C        9.68296749       7.53605394      10.32779854    -155.27414474
C       10.92534197       5.57302237      10.74658826    -155.29331042
C        5.41633543       9.47080406       8.57288852    -155.94078948
C        0.40271801       4.44137894       8.91042019    -157.65661820
C        2.01135885       1.11387203       2.97345378    -156.64390841
C        9.06142981       4.03170095       4.18330634    -155.27502064
C        8.71498498      10.27572142       3.83357895    -156.70850660
C       11.65438654      10.91738671       7.56170700    -156.19152745
C        3.46201843       9.24832567       2.74881427    -155.38301934
C        5.43655649       7.48126666       5.44035305    -155.15739865
C        7.63147024       2.21952714       5.01687896    -155.48999569
C        1.65381640       8.00728291       1.94500667    -157.59978966
C        5.18347199       4.12457064       9.81681666    -155.70994272
C        9.80867450       8.65031497       3.13155420    -154.89055702
C        9.38337806       4.44824779       1.43654805    -156.39488393
C        6.59996253       9.43794338       6.50879837    -156.60595436
C       11.48043402       2.72418920       1.21100905    -154.86372745
C        3.49346562       6.83942614       8.74292766    -155.64095863
C        8.14378383      10.31903724      -0.00466667    -157.47906601
C        0.06133593       9.04681597      10.31307957    -154.29388948
C        3.47822098       3.86356593       0.32488387    -156.55486148
C        3.94703183       8.71294068       6.94849838    -155.28820304
C        8.76200391       7.99669927       1.67540422    -154.41105106
C        6.78956856       3.92821258      -0.03675747    -154.43342451
C        1.42860448       8.75682891      11.63515843    -156.28687580
C        6.62650340       7.17602327       7.61957825    -154.86175330
C        9.70807151       6.31590978       1.14040589    -155.79484040
C        7.78452416       3.62494340       7.02662574    -156.83710341
C        8.64393675       0.97163539       1.88085066    -155.69535991
C        5.01433234       6.08451824      11.50470864    -154.89303151
C        8.03863666       5.49810749       0.73105617    -155.36589108
C        6.29560695       0.69000543      11.39796107    -153.66961011
C        8.70395744      10.15149799       7.87649436    -155.76721966
C       11.71700057       1.83442750       4.10332159    -157.49883168
C        0.07476244      11.21288755      10.18363441    -155.15621193
C        8.15298903       6.22863564      11.24074846    -156.76774019
C        2.61189281       4.81925927       1.22160437    -157.09058372
C       11.50372738      10.48668163       5.10020468    -155.39495755
C        8.47900252       7.87841016       9.77859407    -155.95896050
C        4.81086011       2.31135715       3.69512719    -155.29687463
C        3.56970054       7.21973628       7.19059038    -155.44981678
C        1.84362101       1.24357769       4.39579686    -157.61812648
C        0.00633438       6.05062956       1.35670348    -154.78465313
C        7.59857451       7.59591108       2.53739847    -157.38531977
C        1.91262494       9.58950204       9.36489757    -154.55421567
C        3.69595659       4.43217374       6.53608687    -155.76129596
C       10.68210516       8.39203210       5.91769157    -156.15348619
C        2.51548356       3.38670637      10.68945296    -156.03869663
C        0.03903693       8.87392649       4.89660395    -156.31949202
C        4.95947498       9.63210528       2.04357704    -156.80455115
C        8.91806003       0.80931319      10.28257859    -154.86459157
C        2.53947781       8.77036803       0.79626704    -154.40560767
C        3.02977136       7.93833739       5.34965617    -155.06944483
C        3.30006304       5.36832356       9.59017958    -158.11459773
C        4.64219941       2.84483802       5.40527284    -155.58419689
C        1.48653414       8.13084049       5.01538370    -155.37875080
C        6.57951952      10.41384610       8.35886769    -156.69681142
C        5.82056973      11.60368787      10.80417915    -156.52530753
C        4.96044456       6.27215005       4.54650275    -153.89976600
C        6.73704753       5.84670175       7.62392385    -155.81792910
C        8.44416763       7.25160401       3.69619022    -156.92385318
C        3.59301726       1.72827569       0.84882311    -154.72515654
C        1.35176212       3.82876608       8.36115731    -155.18870450
C        7.42408464       0.07921387       5.66391785    -156.22113833
C        1.72638325       5.81880579       0.69664999    -156.19205234
C       11.42214223       2.77991101      10.31040445    -154.55631588
C       11.07540537       9.71775566       8.37005878    -155.69863873
C        9.28283348      10.81021860       5.10041495    -156.55406473
C       11.53282654       5.50520997       8.38490625    -154.21015567
C        7.10055935       6.97899936      10.18727910    -156.03928753
C       11.08639787       0.70180981       3.70888825    -157.58327713
C       11.27391286       3.29782015       5.94802900    -155.89414083
C        8.15097977       9.33465360      10.52283656    -156.68624107
C        8.68032531       3.73518381       8.34024703    -156.22540574
C        5.74309656       5.78380736       1.72368477    -155.52551326
C        6.03411161      11.79538492       8.40963646    -156.48069906
C       10.77750978       5.94443103       0.38533795    -158.27083067
C        3.43979979      11.38318369       4.16646130    -157.37883351
C        6.90902584       4.79263663       1.95935183    -155.83297579
C        3.30734075       8.92822313       8.80861398    -155.64579260
C        7.43607008       6.51044550       8.82255028    -157.04918386
C        2.95644519       4.81971486       2.37291982    -155.15163964
C        8.86494325       5.63206179       8.82773696    -155.89254108
C        1.48499215      11.77681099       1.93362868    -156.78871893
C        5.10116258       7.75936173      10.95958109    -155.24109449
200
Lattice="11.681721770322822 0.0 0.0 0.0 11.681721770322822 0.0 0.0 0.0 11.681721770322822" Properties=species:S:1:pos:R:3:gap17_energy:R:1 anneal_T=2700 density=2.5 run_id=198 time=2 pbc="T T T"
C        0.44576048       9.38740825       4.94053891    -156.42128679
C        5.66427998       1.17422331      10.89812356    -156.25027113
C        5.53451941      11.69982844       6.23411437    -154.86710876
C        4.64349609      10.84490163       2.59417164    -155.20004403
C        7.53101912       5.53782534       7.04594730    -153.88667838
C        4.18525719       3.45642288      10.24680916    -156.81370932
C        3.22262490       9.19371362      10.19588853    -155.83899857
C        9.54402509       2.38406419       7.78375317    -157.28105448
C        2.56245576       7.89948399       3.33001497    -156.78548831
C        3.22716909       1.90208803       3.41235943    -155.22107574
C        3.75594223       1.50153347       5.11395407    -154.79346500
C       11.53299009       8.58949993       6.15803131    -155.39329173
C        6.16375536       5.71807431      10.61308954    -157.04876179
C        4.01497273      11.10015893       7.74567076    -156.17678992