200
Lattice="13.284255521989394 0.0 0.0 0.0 13.284255521989394 0.0 0.0 0.0 13.284255521989394" Properties=species:S:1:pos:R:3:gap17_energy:R:1 anneal_T=3400 density=1.7 run_id=372 time=0 pbc="T T T"
C        2.81668727      12.41806892       8.92201155    -154.93264636
C        4.41995078       1.51835055       5.27920300    -154.86390879
C       11.09507663       0.95523096       3.45322894    -155.66614578
C        6.12890383       2.95678303       5.67055716    -152.87441960
C        2.51323502      10.44684482       4.48938759    -156.28414063
C        7.95358932       7.08323147       4.89751977    -156.18421087
C        9.15699674      11.00584629      11.44713597    -154.82734769
C        3.47963804       7.67222879       8.93546850    -154.20815840
C       12.89086886       0.16386395       4.19997679    -150.94740630
C       13.15258198      11.96801163      12.96680167    -134.29620218
C        3.56808461       1.59841476       3.88672076    -154.51087054
C       10.30194016       0.53557070       6.84133846    -151.65010039
C        1.62769326       9.15784693       9.80215990    -155.86250862
C        0.68137736       6.14679773       3.54354859    -154.46668462
C        2.17217504      10.86055639       3.11163759    -155.28243323
C        8.46157925       6.64931454      11.08335992    -154.22663975
C        7.84933448       9.80208019       8.39042878    -151.97978696
C        3.41103814       1.65844631      12.36008315    -155.10736469
C        5.07212802      10.06156155       9.23816354    -153.71592567
C        1.83739852      12.74969708       6.25244741    -151.51424735
C        1.14239018       3.16048380      11.27105317    -153.49849574
C        1.28900585      10.51151257       7.51342880    -155.66292807
C        5.19874026       8.11988163       0.31881151    -154.44787551
C        0.17617580       1.07606322       8.70683318    -150.83460338
C        1.59077631      11.10945020      10.86947012    -154.87141517
C        3.63172948       6.28341301       5.94842394    -156.48343888
C       11.53297883       9.34483612       0.39724042    -153.84625042
C        1.85066949       6.80177794       9.92044291    -154.15434292
C       12.23885103       7.68358683      12.40871681    -155.75729085
C       10.73007843       5.30792356       8.14736675    -151.51173265
C        7.57961096       0.79284157       3.26107218    -154.57489952
C        7.47586092       0.91128000       6.81298986    -153.72228557
C        0.71639200      10.36349940       4.54568626    -154.72936471
C        2.20437608       1.51097779       5.28154103    -151.75566590
C        0.07020490       8.38390621       6.62279917    -154.29378368
C        8.05846852       0.65113841       5.18577483    -154.13268820
C        2.35529850       8.74194346       2.71757344    -145.79381802
C       10.45457625       5.72373404      10.12146026    -154.48063212
C        8.52546323       6.50257666       2.37384332    -154.03769736
C        7.17186402       7.55524763      10.78209957    -155.83118686
C        6.51223431       0.09536528       6.56278090    -158.03064263
C        2.83464758       8.37408914       2.24081479    -143.74697988
C        0.45757485       5.26739329      11.23264838    -154.01560226
C        0.13952586       4.62209730       8.29002637    -154.89736122
C        1.73663744       8.46141984       8.06831215    -153.31329284
C        7.54780845       5.44258606       0.24697424    -154.59674744
C        0.99411265       4.41346806       9.90270843    -156.29268890
C        1.08946305       9.78744094       0.45172447    -154.38565600
C        7.42200655       1.75981847       0.12153473    -152.70891394
C        0.33332323       3.64776358       7.61445556    -153.54105100
C        3.06037365      11.51930933      12.69245522    -154.64863718
C       11.60442156      10.55001034      10.48473151    -153.77885731
C        4.55393578      12.29940067       8.17090645    -153.08265405
C        9.48794740       3.81800131       9.81273416    -146.87529000
C        6.67828750       7.50834093       6.94585898    -153.09857620
C        0.06517535       1.15109403       0.03021584    -153.48158083
C        9.77986892       1.40700192      12.66324314    -151.96266879
C        0.59487560       5.95971555      12.84944855    -154.60418141
C        3.34773867       8.99597828      12.04487433    -150.77063035
C        4.90792134       6.64773372      13.27612556    -155.32543194
C        7.54673243       8.18818927       2.94486705    -153.87268282
C       11.11289082       8.84255841      12.10596863    -155.08198021
C        6.95851887      12.22085087       3.27609668    -154.18420800
C        9.42219034      12.34816717       3.15827861    -152.30429479
C       10.68766180       4.55801405       8.87272696    -142.45441298
C       11.05230133       8.28374292       2.06519693    -153.81971076
C       10.44677840       3.83808711       8.95042657    -126.36336567
C       11.30947123       5.33125071       2.56613292    -155.01778008
C        3.46360394       3.39566826       7.86114418    -152.02528067
C       11.44211452       6.95871814       0.63087328    -152.80610085
C        5.93495370       5.13114997       1.16536929    -153.66927699
C        8.00065544       6.76808907       8.38851584    -153.15339419
C       11.03677204       2.41002964       0.78113017    -153.71824298
C        7.39651406       9.69447772       5.90668481    -154.81065253
C        5.77622013       7.00482779       6.59361366    -153.39350770
C       11.39350743       6.72798390      11.30867418    -154.04827283
C        0.48286010       3.37471899       9.53316701    -155.46610339
C        0.66381558       1.15788361       9.50374238    -151.68181269
C        8.13461387       4.24600674       8.48130637    -157.26464574
C        3.43234609       0.43149786      11.00854299    -155.04617242
C        5.18790031       9.89083230      10.49693974    -155.47996439
C        3.03983619       1.64338197       9.44102741    -153.46396323
C        0.21859508       7.22817598       9.13090646    -155.74124885
C        5.73166474       7.68779793       7.81718658    -152.26882241
C        1.51417930      10.14271507       5.86587557    -156.44889491
C       11.59909457       6.01748878       7.70759148    -154.42283410
C        3.02772095       9.97561242      12.66200771    -155.37670837
C        6.96080377      10.33888367      11.33398068    -151.48010619
C       11.89517406      10.77536446       9.44414921    -153.66509549
C       10.14727157       3.26832539       8.87317862    -132.86165171
C        6.18493682      12.53591356       5.10572390    -152.07507318
C        5.33916813      10.02176192       2.11796199    -152.64543331
C        7.30703132       5.99337786       5.14066150    -154.99605453
C       11.53305854      10.19217235       3.15362912    -154.47468747
C        7.84787321      10.77493936       5.91704653    -154.11456710
C        1.74775636       1.15871653      13.03123031    -155.10427619
C        8.05963753      11.89213196       0.39043623    -149.94448654
C        4.97215072      10.44911642       6.20397316    -153.67667504
C       13.25447222      10.20406176       6.28261595    -155.36175258
C        3.66329287       5.57661091       2.89121194    -153.11949894
C       11.48049274       1.18458762       8.06329070    -153.86177461
C        5.90789367       0.31126206       2.42668809    -154.53116342
C        6.97678473       9.38029179      10.58209182    -155.91915406
C        9.39615319      12.11219894       5.21112119    -154.13871114
C        2.71276454       8.94806197       8.75343434    -156.81793871
C        2.99555977       4.80249749      11.69026442    -153.32719057
C       10.48900904       0.49370139       9.09476001    -150.19181286
C       11.65264341       8.47239263       5.56748463    -153.94877292
C       12.64424666       7.89964196       8.50402245    -154.55110647
C        7.32588168       4.18792797       6.36574882    -154.41991860
C        5.08587723       4.62577704       1.44167383    -152.46539888
C        0.70980567      11.31599380       9.08417245    -153.81074716
C        1.69335734       6.80245544       1.03052214    -154.01503568
C        2.56685027      10.70036155      10.04313629    -155.11052115
C       13.03594622       5.06814275       3.07015086    -154.69597737
C       12.05338954       6.22730031       6.42360176    -155.76306742
C       11.26140880       4.70635933      11.89803017    -154.13140976
C        1.53476989      12.48718691       3.59578228    -152.35209111
C        6.03386827       8.06031503       4.60148013    -153.93041145
C       10.89876191       3.22399583       7.35053726    -150.21614007
C        3.73481530       5.66823242       4.52666321    -156.07547006
C       10.61463825      11.29375596      10.14007150    -156.29939929
C        4.89948584       3.67419925       9.24176358    -153.54335482
C        5.59470407       3.80074506      10.15339561    -154.87679814
C        2.22310688       8.02446082      10.86292098    -155.48783423
C        5.63314870      12.34404905       6.88986584    -155.55368149
C        3.19240587       0.32840672       0.99631651    -151.87833677
C        2.25929319      12.80376400      10.27446832    -156.25038237
C        9.13242087       1.68064430       2.65533670    -155.76315364
C        4.77046915       0.71554181       6.67889858    -154.66415073
C        3.59530405      12.82269406       0.42906153    -156.04976752
C        7.89462051      12.10215604      10.66121285    -153.67674046
C       10.17259136       0.94850381       8.32398093    -152.69066366
C       12.50891995       6.69068171       3.71627048    -153.95209765
C        4.54269730       2.96314618      12.21179101    -153.98814428
C       11.68598689       9.78170214       7.36136392    -152.79260062
C        5.29212858       7.85723861       5.86689846    -154.81097315
C        1.46364599       2.65716993       8.94224347    -154.53712622
C        4.54672243       5.77907625       1.31293478    -156.88776999
C        0.22528503       2.03923950       6.28945735    -152.94913445
C        7.56345730       3.74418070       4.51165200    -152.16071724
C       11.72334221       3.38025852       2.24639418    -153.69347673
C       10.92808026       9.58084420       5.38074785    -151.55282673
C        8.11621517       7.26009804       1.29173710    -154.84798933
C       11.10820148       2.96860601       4.82283568    -152.88235977
C        8.86621767       1.44957796       0.02121921    -158.21580638
C       11.62077448       3.61264000       8.74893098    -150.49248744
C        0.86706601       2.32641853      12.86092615    -158.22795360
C       11.03992040       9.04317724       6.34413534    -156.17430576
C        8.58027407       8.64767839       3.25112228    -156.87072791
C        6.13978364       0.70692299      11.33226702    -152.18026646
C        7.55257750       9.04137058       9.69884824    -153.74655334
C       10.93958442       5.08158641       4.28349491    -153.41857095
C        9.87644545       1.78488586       4.02093160    -156.03675001
C       11.23530523       0.89574938      11.06903949    -152.35241665
C       12.71328494       9.28703632       3.24741597    -154.51115748
C        4.11734872      11.31576797       0.70937526    -154.67727458
C        4.90664605      12.05783977       2.44937760    -153.89953668
C        0.88662310       7.86299070      12.85470912    -154.63444978
C        4.57078022       7.33183302       6.78881251    -158.36736422
C        8.27751261       6.64522299       6.43511921    -154.49928439
C       12.78517933       5.81938068       4.64182442    -156.84152865
C       11.35066571       0.12285904       2.31177928    -153.55335014
C        6.74586451       4.12995548       8.74724388    -154.69564478
C       11.69321352      11.88162412      12.58829338    -153.86027602
C        7.29927331       0.72163663       9.94892435    -153.98630027
C        7.28944296       5.34414972       6.57667623    -156.02912283
C        9.80945295       4.42163788       7.81208543    -150.77600144
C       12.90165568       6.85115552       5.66363607    -155.67828695
C        8.67546905       8.54779407       4.83719596    -154.77531811
C        4.83584097       4.56663553      10.65484969    -154.36781844
C        3.70058178       3.72143806      12.68285071    -155.36981308
C        0.92239892      11.80460200       8.10008809    -154.48198235
C        9.42709223       3.30109764       1.50794898    -156.03841124
C        4.48598682       6.31103098      10.37722203    -155.29817835
C        4.47003242       7.65286034      10.83409415    -155.15872601
C        4.74619881       9.76585403       0.10713633    -154.83896659
C        8.13736371      10.03668014       9.95805063    -154.57653484
C        3.47060474       6.88557503       7.06117960    -152.88238296
C       11.95161886       9.97647590      12.87580452    -155.03466786
C        1.35301471       8.82544829       2.12877538    -153.65616871
C        9.25785081       9.77098175       2.06625967    -153.14560162
C        1.35204496       2.62604492       0.74543537    -152.89998143
C       10.56568577       4.56292922       1.71400107    -155.69224157
C        2.45357543       6.01496477       4.56642298    -153.66021065
C        5.74521468      12.39702666       4.28217977    -152.20791879
C        8.48800163       2.24015058       1.21916919    -157.45655766
C        2.46213049       8.78374901      11.81269212    -152.20962132
C        7.36380823       6.33736037      10.51390374    -154.84807093
C        8.48436175       4.28706837       1.28641808    -154.23835974
C        9.89157622       5.05960097      13.20461641    -154.57400704
C        0.37941428       7.55094353      11.12015731    -153.92675966
C       12.84165070       5.70924092       1.21303718    -154.44721432
C       10.85133711       6.13880060       0.73635957    -154.08277457
C        0.11319753       5.25483967      10.03508603    -154.02577562
C       13.23756136      12.44639096       0.01553846    -132.41711363
C        9.72600126      11.18442654       8.62245158    -153.23675831
C        3.39030142       3.13293225       0.21166734    -151.93553490
C        4.13885593      10.92579537       4.82166667    -154.93542564
C       11.35995140       3.74419399      10.35499747    -151.63736728
200
Lattice="13.284255521989394 0.0 0.0 0.0 13.284255521989394 0.0 0.0 0.0 13.284255521989394" Properties=species:S:1:pos:R:3:gap17_energy:R:1 anneal_T=3400 density=1.7 run_id=372 time=1 pbc="T T T"
C        7.12999205       8.48012407      -0.05781547    -155.48961166
C        3.86741874      11.50991736       6.57103043    -155.93183119
C        9.82801106      12.10677897       1.69026210    -157.35606971
C        1.87318630       3.39414057       7.88746029    -155.98627787
C       10.00350936       9.79033691      10.40410937    -153.47524727
C        5.50531431       7.51229963       7.85858032    -155.91464924
C        6.95537051       5.10835419       0.96576405    -155.79647045
C       -0.21035353       4.85380128      13.22616347    -157.32422054
C       12.20921386      10.70849151       2.43816569    -152.82252375
C       12.75688386       0.23284643       9.82415862    -155.59837521
C        0.70409875       3.87989266      12.72998324    -155.87830326
C       12.30584353       1.42223896       5.21428284    -155.20175097
C        4.89674928       8.94111431       7.48666102    -155.21786961
C        9.73290907       9.55236276       7.08732302    -154.85225776
C        5.71476717      12.94745979      11.99088712    -156.07556481
C       11.29791393       2.82040686       7.18690180    -154.99119872
C        6.80362446       9.30219366       8.29172676    -155.71569672
C        4.51861295       8.27097675      12.35050520    -156.89856332
C        9.86280252       0.65908107      -0.01741925    -156.28793118
C        0.65650658       6.06790253      12.38283908    -155.38545267
C       12.07947982       0.73887029      11.70904835    -155.52855368
C       12.80679281      11.75845250      12.01753534    -153.01849837
C       10.15827093       0.80099810       7.87655392    -154.48901356
C       13.11401779       2.28571557       9.31449488    -153.56482569
C        1.33979687       1.11019313       8.47608566    -156.83795124
C        0.06894821      10.58918561       7.90547375    -155.37604425
C        2.90630285      13.10280588       6.15232398    -156.13531373
C       11.66178297       4.89296327       5.68052036    -155.64587313
C        3.65124405       6.64524956       2.33853377    -153.70859852
C        4.11728230       7.17567660      11.31505062    -156.00729473
C       10.78604500       5.94423940       4.96387462    -155.38657579
C        5.06038474       5.94046667      11.91682740    -156.76950140
C        0.59673806       8.63113949      12.69604197    -157.17198110
C       -0.01063992       1.52564361       8.55039778    -154.03944553
C       12.25309176       8.05263673       1.27905993    -154.33874172
C        8.10522910       5.85546072       5.86903723    -154.45560598
C        9.56051929       3.87210808       3.69243853    -155.00711401
C        2.69437913       8.23239927       8.64631011    -154.97719707
C        9.25653567       1.02175719      10.66618116    -153.79757459
C        1.72954365       0.99881660       6.72789091    -156.78067483
C        8.38017333       5.70962616       1.96565801    -156.76457320
C        9.37529691       4.35708968      11.55441962    -156.29794294
C       13.20409832      11.69359877       2.21856366    -158.23962392
C        0.84783440      11.93648809       7.32076724    -156.88064116
C        6.57674266      11.22729483       4.34740546    -157.40184738
C        7.62124381       5.29975374       3.05212413    -156.55018194
C        7.72577762       8.15187012      10.95265613    -156.40324561
C        8.30709664       3.59831958       6.61662199    -155.36270570
C        7.81389209       2.49163482      13.06183723    -155.00641750
C        8.50262760       4.40005097       9.91688273    -154.09593719
C        0.34695819       7.28285397      12.00717362    -155.73916148
C        8.85642718       9.99997575       3.68919717    -156.11442535
C       12.79728128       8.35066900      13.45987338    -157.52898282
C        6.39755133       4.69643599       2.34210724    -154.14676308
C        8.86773208       5.09137691      12.90116416    -156.27940210
C        9.49743236      13.07102994       5.94603277    -154.53956756
C       10.52394664       1.57333409      12.12594815    -155.51270954
C        2.57927105       8.82222022      12.72116250    -157.23508042
C        1.48440928       5.44900235       4.57989322    -157.02693355
C       11.87588532       7.18521470      13.12281196    -156.59274585
C        1.47278556       6.43584984       1.50943682    -154.58924141
C        9.71841595       1.72642185       1.14794167    -154.00018849
C        4.75549779       1.86548143       5.04080375    -153.76952538
C       10.73377145       3.43088482       8.40490862    -157.37170710
C        7.63044980      12.25889698       8.05597108    -153.27181353
C        0.07537314      12.74308152       1.68981044    -155.78630168
C        5.75814026       8.44436285       1.65523152    -156.51794358
C        2.41699059       6.43886537      11.39049191    -153.98853344
C        6.22053863       3.03430994       5.04170708    -154.99801175
C        6.36313183      12.76543892       4.14617556    -153.91891083
C        6.61861463       5.76506136       9.97865451    -154.61261508
C        5.27584208      11.41555930       6.37495481    -157.24174811
C        9.06261211       7.29914047      11.15021958    -155.43178150
C       10.12250972       5.87427122       2.00080815    -155.68226740
C        6.31371440       1.34208177       1.13802099    -153.58878983
C        0.47092287      10.19116275      10.54829668    -155.74698617
C        7.67229521       1.71249995       1.05688341    -157.59284003
C        2.74483273       6.24329456       1.80782777    -158.19626052
C        9.48831936      11.21488733       3.62414417    -156.49943719
C        5.42277923       0.81053221       5.46265857    -157.84545116
C        7.81139465       6.38777412      12.21883166    -155.88581262
C        8.66308812       8.63900377       6.46268404    -156.13698530
C        7.87005792       6.75534947       8.46657413    -155.63891236
C        5.59442510      10.64300013       5.10642797    -157.31148349
C       12.34552361       8.61490613       5.27444723    -154.65983926
C        4.61204112       5.92056685       0.23317721    -154.23579015
C       11.15441740       3.70349103      12.57973831    -154.91054822
C        6.21351126       6.78986197       4.20332443    -154.34815233
C       13.06189037      10.84493410      11.21018471    -156.65084086
C        4.19952513       1.43618743      12.29295781    -155.70500827
C        4.24495728       0.46129710       6.10355747    -155.78530537
C        2.17868433       2.88717353      11.81723533    -156.19896712
C       10.78413206       3.45403928      11.12242892    -156.05462405
C        8.26416193       2.91131102       1.99343538    -155.09908622
C        8.65317807       3.15810592       5.42966048    -157.04802873
C        3.38125484       5.24482334      12.72157431    -155.15891574
C       11.38729040       6.87446939      11.76853525    -155.63073798
C        8.83782922      12.22717417      10.00590052    -155.66301448
C       13.19372332       4.69828250       6.34139878    -154.70622340
C        4.85281825       7.61998181       2.90146739    -157.71321869
C        7.66472318      10.12131413       7.16399974    -154.84310866
C        3.34230541       7.88958578       9.69147548    -156.40042644
C        5.36568350       0.94364311      12.04986921    -157.06081634
C        5.89584485       5.47897163      11.00922049    -157.00358452
C        1.45291231      11.49530468       5.99101326    -155.03880624
C        2.64818977       0.64215161       0.50045377    -154.75639005
C        6.56372408       3.53709244       6.83736646    -153.51808577
C        2.68813553       9.44982159      11.12652047    -156.72055401
C       10.37460504       1.78970804      10.67273030    -157.77916386
C        4.31730334       8.88502818       3.69335514    -154.97624237
C       11.05644602      10.37518954       7.38226006    -155.90088773
C        0.07521479       0.46275306       6.05520278    -154.62413979
C        1.59230400       2.99245125      13.01442572    -154.91044803
C        7.80976068       9.12654923       4.13837770    -155.43951133
C        8.91972665      11.27950195       5.60849312    -154.80721562
C       10.49440245       2.13407580       7.51478379    -155.79001650
C        7.70516046       1.68601114       9.52179568    -154.53881347
C       13.20146804      12.09467701       4.52105725    -152.93281884
C        6.95992701      11.67555875       3.15497083    -156.88192910
C        9.26038810       4.35889634       4.85648470    -156.95534643
C        3.81335182       9.25362642      10.79831965    -155.83627421
C        6.38772098       7.19541700       8.73280390    -156.77135282
C        5.20174250       9.21583271      11.52491529    -155.98705276
C        6.97650576       6.93904416      -0.17127656    -155.69554071
C       10.75994143       5.05557584       8.33981576    -154.14765897
C        3.38949108      11.19246351       8.17652570    -156.84006785
C        6.36234806      10.85230686       0.56910548    -154.87072038
C        7.36440602       2.99362027       4.46382868    -156.88982638
C        7.53683565       8.33908513       5.27226862    -156.91326961
C        7.49941391      11.41334083       1.91355716    -155.60675013
C        2.78719622       1.45094624      11.74061175    -154.96338934
C        1.64137604       2.42409766       6.56534476    -154.99565120
C       11.76215881       4.38770989       0.37085922    -158.32599316
C        2.61598873      11.31006902       3.50014893    -152.78825488
C        8.07409080       8.65389542      12.40502379    -155.53074385
C        8.29747884       4.62479400       0.68327435    -156.59419681
C        4.01858029      10.08268352       8.22283461    -155.58091316
C        1.10943194       6.98147407       4.62144637    -155.56639531
C       11.16008978       4.65156178       1.40665653    -155.70584183
C        6.42725493      12.22969818       6.50960403    -155.97903812
C        9.21175444      12.36343078      13.35971009    -155.62427061
C       11.23833404       8.57384449       5.93466145    -155.89184038
C        1.18913216       2.39796753      10.09167696    -155.33512264
C       10.81855157       2.53078352       9.52894261    -154.90242234
C        8.59816797       2.61645368       3.49126176    -156.43943701
C        9.62998266      12.29294452       2.79532618    -154.96917920
C        2.31217781       4.22932171       8.53678142    -155.69974885
C       11.59683625       0.52221338      10.23938460    -156.25026301
C       11.63156129       2.67649852       5.82376448    -155.86532884
C       10.80640976       0.48494042       6.20899461    -155.73331894
C       13.05366741      11.00834373       3.52788645    -160.41551016
C       10.25216405      11.35385393       0.60459304    -154.28083882
C        2.07810923       1.21699722       1.33396509    -155.64594205
C        0.33721286       1.57443668       0.42168079    -156.62301744
C        4.81474557       9.37932204       1.11149897    -155.16539267
C        0.72358144       9.85804676       3.28761413    -151.87589395
C        6.24063771       8.91033469      10.45195925    -155.66956217
C        3.89158280       9.13801354      13.32649945    -157.36647953
C       13.12885630       3.84690785       5.45997515    -154.73338881
C       12.10240845      12.09941949       9.93618475    -155.80883510
C        7.00505362       1.84219413      12.07455136    -156.56280298
C        8.87707091      11.52741273      11.32109496    -154.21517376
C        8.05561240       5.19459557       4.67146159    -156.94039260
C       11.94453835      11.10336601       8.73276404    -156.61913402
C        7.09925228      12.81007402      12.92042633    -155.51283842
C        9.75223766       5.08935770      10.38729150    -156.08766318
C        9.06776640       6.58334493       7.68159419    -154.79907813
C        8.70838743       2.27081064       7.70257003    -154.48211355
C        0.70327779       5.46888888       0.99951403    -155.47407227
C        8.59911115      12.81092421       8.76970756    -158.59161466
C       11.14511842      10.47381186       9.93077806    -156.54568324
C        0.55049689       2.54521022      11.35337570    -156.68655808
C        1.55472285      13.13164599       8.82140988    -155.70399794
C        8.06335712       2.73653007      10.74892879    -155.01065450
C       10.34650883       6.59142176      11.02383317    -157.50337138
C        1.57806328       9.28234698      13.34124498    -154.50881679
C        6.87836168       1.93024218      10.74028074    -156.57717404
C        1.99326269      12.12436732       8.23675651    -156.62864763
C        6.86483830       0.58490046       5.71527197    -153.90318001
C        1.62979217       9.79602257      10.09866448    -155.59104713
C        7.43215572       6.87737864       5.12008418    -158.19936537
C        4.71672105       9.95119596       4.27096786    -157.53486157
C        2.49046580       6.16199491       5.39049849    -155.53696054
C       12.00069090       6.72836915       1.44039854    -156.97645741
C        7.13917147       9.06153608       9.62187926    -156.71273515
C        7.43502512      12.86908268       0.99164709    -155.52312477
C        8.89499137       8.22282133       7.83456239    -156.28291404
C       12.91847355       0.58077038       1.22965313    -155.65777898
C        1.81814963       4.39538819      10.17573973    -154.02231535
C        2.45736144      10.14399036       5.78965052    -155.16359664
C        2.77967733       5.45068945       0.57827826    -156.40901501
C        6.29712236       7.54489920       2.61612158    -155.21600997
C       12.18312358       5.61862901       1.93414775    -154.63844917
C        7.54337151      11.69802242       5.53546957    -156.88492153
C       12.10943582       9.77533898       7.08145138    -155.90430792
C        5.59815797      11.82858009      13.14843729    -155.94582432
C        9.12201930       0.53626547       8.28391562    -155.38054326
C       13.57637630       1.25853974      12.19596946    -156.85243722
C       10.50679666       5.40681156       3.42125374    -155.72585032
C        3.34715416      10.63193435       4.63170181    -157.39913428
200
Lattice="13.284255521989394 0.0 0.0 0.0 13.284255521989394 0.0 0.0 0.0 13.284255521989394" Properties=species:S:1:pos:R:3:gap17_energy:R:1 anneal_T=3400 density=1.7 run_id=372 time=2 pbc="T T T"
C        9.76871014       6.98231098      10.01836115    -157.23139105
C        3.09640055       1.28199442      13.30165790    -155.97157964
C       11.85949255      12.62813286      10.86879262    -156.60509383
C        2.33460163       7.60016170      10.19947869    -155.85749417
C        5.41334741      10.51265502       4.06886119    -157.56113247
C        6.77462493       2.50193012       6.25390868    -156.74672821
C        3.29453522       6.50274935       7.52210342    -154.40017355
C        6.12426763       4.75426236       9.50746197    -154.86510822
C        0.64958415       0.34488451       4.85113115    -153.85675826
C        7.26966271       5.50700141       9.17810542    -155.27135645
C        4.66727705       7.53898770       7.97866999    -155.13674731
C       11.37010058       4.50746746       8.41367622    -152.22512677
C        4.99980854      12.81630434       2.95036673    -156.48596445
C        0.36452130       6.55470408       6.48821638    -155.95062357