200
Lattice="10.442332386506106 0.0 0.0 0.0 10.442332386506106 0.0 0.0 0.0 10.442332386506106" Properties=species:S:1:pos:R:3:gap17_energy:R:1 anneal_T=3800 density=3.5 run_id=494 time=0 pbc="T T T"
C        2.20695562       6.77693797       8.84412297    -147.51757565
C        5.47711820       6.79100379       0.04186905    -149.33254630
C        8.19540352       8.27671796       5.99457754    -150.39214298
C        9.12229626       1.54927664       4.40219495    -154.81811917
C        7.20632668       3.60659364      10.07917939    -152.82918506
C        9.80262466       3.16453839       1.47135596    -154.62381462
C        5.94177067       0.42361305       9.28937358    -155.04190544
C        3.69523860       5.60756382      10.41184078    -152.84548724
C        5.24210307       1.05444584       4.74164385    -153.67918861
C        2.01846108       6.96616347       1.49631313    -147.77536029
C        7.68301915       9.03381838       1.01911630    -153.72295875
C        5.79574509       6.41529911       6.77894290    -153.32438686
C        7.69475633       0.51518395       2.65125598    -154.84022987
C        8.67872687       4.70961721       3.63857851    -153.41335655
C        2.73701886       4.55927895      10.23675419    -148.73195550
C        6.29960851       1.45836570       8.45745385    -153.73855029
C        3.33910286       7.85080655       7.99689478    -149.57755397
C        2.12274865       5.35854552       1.43393064    -148.29253800
C        9.00478870       6.48010423       3.78972083    -149.58652221
C        2.19477986       8.16592481       7.01467855    -153.61175021
C        0.26968472       2.64310052       3.30299327    -156.01632577
C        0.60056360       3.78509487       1.85509079    -155.77844707
C        3.55903926       3.25521960       2.65798084    -153.98119312
C        8.92656519       9.48176311       0.68266017    -154.23594866
C        6.47311831       4.32295853       5.08617816    -153.62921585
C        9.95303602       1.01634072       8.79681921    -153.93197475
C        6.71759419       8.67621027       2.41030960    -154.20204879
C        3.80356736       7.69380608       6.70083425    -153.11790822
C        1.02318359       7.88899416       5.63398292    -154.40170376
C        7.75718059       8.51772699       9.42289969    -154.65330382
C        6.78085384       4.34624493       8.82269531    -134.42913049
C        8.61389043       0.23520414       9.82664203    -153.58955050
C        8.13287483       5.62681948       6.72918518    -153.53437493
C        8.81370446       4.62009510       5.83746221    -153.94340806
C        6.90432398       9.11352471       5.43613205    -154.97647175
C        7.29431377       4.14479146       4.16994703    -152.88153802
C        0.23456611       0.18155770       1.92569140    -153.95433661
C        4.56876059       5.35410753       1.91740019    -154.86016311
C        8.45812216       1.05217985       5.55432881    -154.67209309
C        3.35355505       7.76173345       8.90626529    -145.50445675
C        4.02998845       1.67251705       7.32369849    -154.98191608
C        1.66286834       3.59124342       8.88346968    -111.44718388
C        2.08694190       5.38065194       8.29963888    -155.53791508
C        4.69270064       5.30702305       6.80377476    -153.95017909
C        1.75718348      10.16246744       7.29463748    -153.04849347
C        1.67483525       1.55444560       2.58167872    -148.21890771
C        6.53505178       6.40073206       0.53196896    -149.20279253
C        0.27632918       0.58507762       3.33669068    -152.09043480
C        1.20208998       6.99290629       6.26746701    -153.22155485
C        2.50130409      10.12977249      10.23199249    -148.85731047
C        6.05451653       4.19492509       7.40359278    -151.69496367
C        7.55741878       4.73106577      10.17909163    -151.98646045
C        6.59944964       3.75379920       0.87933941    -153.90911898
C        6.62219304       4.89457181       9.05863981    -131.50696450
C        2.04958967       8.60911828       5.25944778    -153.68528490
C        9.48737065       8.23745479       0.80811957    -152.46987693
C        2.75880156       8.54915841       1.48414782    -153.16808606
C       10.17534283       7.34389396       7.46589173    -155.07056662
C       10.34965669       4.33390210      10.25386917    -150.43431094
C        7.76182743       7.26672513       3.96469255    -152.69681584
C        9.48008190      10.38730129       6.26172373    -155.41347646
C       10.43045945       5.89843499       9.42524921    -152.55870845
C        5.87107608       9.83899531       1.79200866    -151.48404486
C        5.26786430       4.43627872       3.01475357    -152.99235116
C        1.10453771       5.36240918       3.32154930    -154.03171857
C        8.21153692       3.63042305       4.46942268    -150.14791483
C        3.25910415       6.28019622       0.75273449    -150.93812024
C        0.62868480       8.55820147       0.63386733    -149.80612969
C        5.14648263       7.08532093       1.16217938    -151.24821363
C        3.17672459       1.23355272       4.78926088    -150.81573974
C        9.69925601       4.53539734       9.42036220    -151.71205100
C        6.53489515      10.06906077       4.27482982    -155.03301581
C        5.86117675       9.76414467       7.04619351    -154.47799160
C        8.10192376       5.56871834       8.09118904    -152.40952734
C        6.96417943       5.35579918       3.01964058    -152.64007959
C        5.68999559       3.26876331       7.20264053    -152.86081784
C        0.45300404       1.57015087       9.43410431    -154.91178324
C        1.66022643       9.57083621       3.38312773    -154.07394016
C        2.24651118       2.66361970       5.06341388    -150.54635629
C        4.15226817       4.44998950       5.78929173    -153.17013696
C        7.79841736       2.94638762       9.09781944    -149.55218563
C        3.76075380       1.06937838       0.01524612    -153.59017133
C        5.75333878       9.11268932       3.56611916    -155.46568495
C        0.27526093       7.68299827      10.23487457    -153.03985227
C        1.45235092       3.65050365       0.60627033    -153.57054682
C        3.53060479       5.14579344       4.19597977    -154.80505600
C        1.11706851       9.10639259      10.39100832    -151.17442220
C        1.65922396       0.54343777       4.70442738    -149.84237497
C        2.24336804       1.40328240       5.89117757    -138.57276072
C        8.93473109       9.63101537       7.15122249    -150.52460298
C        8.09210796       7.40834404      10.37005056    -153.59938871
C        5.89304674      10.28778587       8.36210491    -154.65156120
C        8.89296176       9.98141828       2.93782491    -155.05703551
C        5.47566672       5.50063433       5.76001143    -153.92522456
C        2.66222043       1.20528533       6.80804568    -151.36855996
C       10.33763756       4.90846011       8.49458678    -151.44091527
C        2.01124543       2.14002027       0.36217141    -153.73270719
C        8.08800413       3.73821924       7.07630920    -151.97623019
C        8.35606924       3.55723274       8.67198112    -140.26104860
C        4.52383768      10.32415651       8.11452765    -154.45111930
C        5.85527683       2.71188416       2.26059788    -153.37384174
C        1.65180991       5.09286126       7.21733289    -153.24514142
C        7.94690733       1.12414841       3.80234561    -154.88993524
C        5.85173688       4.58216855       4.10500617    -154.20027568
C        0.34075523       7.49577769       1.89042764    -154.04231704
C        5.33950915       8.97576946       6.13282358    -152.67110796
C        3.97654460       3.93847185       0.83985382    -152.94688384
C        8.32444986       9.54317447       6.24036916    -153.90008862
C        7.54691379       4.53306870       0.94980845    -151.42202361
C        4.98412525       6.04500356      10.01515745    -147.91095259
C        0.55244011       6.15781208       1.66338001    -155.38656076
C        3.50132449       6.86989561       3.06932520    -152.64090888
C        5.15592250       3.65163142       9.42072768    -154.86550920
C        5.48155619       8.83857809       1.56498191    -155.80527059
C        1.73186083       7.84043731       3.54206003    -153.27174680
C        2.80396465       9.82264261       1.08956340    -147.09479556
C        5.10445224       5.60819036       0.59562333    -151.80741948
C        6.82831424       0.74720423       7.48071984    -155.78429240
C       10.00591599       6.02895370       1.15267686    -152.35368010
C        8.82985875       2.10675100       6.15638148    -155.32376853
C        7.15946149       1.72885343       9.18220393    -152.66374446
C        8.08098688       7.83485066       5.09021935    -152.81067108
C        1.75957478      10.34634647       9.18688209    -152.12565944
C        4.55296134       3.27374430       0.19606941    -153.06676720
C        7.44761765       7.15384351       8.67532267    -155.37830533
C        9.93713235       9.29274646      10.22677132    -153.15352255
C        1.48093158       6.32406446       4.73344662    -153.44787040
C        8.51750770       4.20323719       0.56850877    -151.28539712
C        6.00268079       6.05435989       1.59325975    -153.65837346
C        2.34158861       7.89673192       8.89572898    -150.26569760
C       10.24560929       0.50104608       0.43934025    -150.90624672
C        0.52392628       0.20075593       5.73592097    -152.88469818
C        3.25180496      10.27924404       8.85713412    -154.42623366
C       10.35928452       5.99806528       7.31388270    -155.05406116
C        9.21923244       2.87387607       3.16190692    -154.57243665
C       10.10665317       9.85570304       0.72210608    -152.78956663
C        9.79735128       5.81355971       4.16807786    -150.73229885
C        8.98505269       5.04282160       8.25111336    -151.66554058
C        1.29124661       9.49263358       6.14093727    -155.61172011
C        4.50748499       5.98557625       4.25574124    -152.63028567
C        8.74744786       5.93457590       4.73302892    -151.38923498
C       10.09690003       7.42068688       4.71082852    -153.75995501
C        9.52644586       6.00671153       8.78629334    -150.83050485
C        7.98014528       8.80948576       3.91359822    -154.02757601
C        5.81460394       4.41462132       1.93707354    -153.41014048
C        1.22076087       8.55104847       9.29938778    -152.42421539
C        3.44041437       3.81625479       7.65747720    -153.87628225
C        4.99517324       2.36288053       6.57739544    -155.35235259
C       10.24564061       1.49678304       4.17276646    -155.63621204
C        0.88725992       8.47162409       3.04348043    -156.41046995
C        9.30756413       8.37368546       5.86779718    -153.19403998
C        2.90196594       8.27599744       0.07767143    -154.07451337
C        1.27097804       5.80803572       9.97044339    -153.89378457
C        6.03772526       7.99598629       7.53845550    -155.16408196
C        3.75269232       6.47390148       4.71453555    -149.29368418
C        2.58467567       2.39307976       7.21737466    -154.04109125
C        7.71708204       1.82750215       7.34392529    -154.31738395
C        9.83536137       9.12620170       2.90991255    -154.35036496
C        2.94039372       3.58749462       0.28174457    -152.65886787
C        1.73052421       0.74236212       5.78420631    -142.62376900
C        7.17104204       3.06734116       7.63613308    -155.14988922
C        5.06275601       2.99778478       4.74599830    -152.60771398
C        6.50024749      10.41962031       6.52503758    -151.48454866
C        5.64061380       2.79713536       5.68267552    -154.79306201
C        3.55522781       5.16309638       8.45475972    -154.38809838
C        5.83570790       6.58502878       2.64299610    -152.09460475
C        2.16657512       0.73567380      10.36045406    -151.50846409
C        8.87630624       3.01493109       8.93257997    -139.51117952
C        3.29971438       2.24236557       3.76267519    -155.02299089
C        4.84756043      10.15678681       0.03895763    -154.69063503
C        7.37709014       8.39206396       7.88843027    -156.36501447
C        2.01375159       7.10432597       9.69922469    -148.21254154
C        5.55262671       5.71045212       4.72742139    -151.56942910
C        3.38051715       5.86667985       2.39903188    -153.66003313
C        3.34288298       3.96784613       5.44976973    -151.63582247
C        2.70242341       5.01137974       0.75316993    -147.99059611
C        3.33904020       3.77489272       3.89312080    -155.10667674
C        0.20184506       1.99909055       5.81234840    -153.73837298
C        3.89498998       8.88060848       9.91460823    -154.60183859
C        4.75839335       8.70832044       0.36085881    -154.33577072
C       10.15570080       5.78408101       5.66825465    -153.74027558
C        1.82744994       1.63128028       5.11320292    -143.10728962
C        7.49101598       4.17037517       5.88624879    -153.73793968
C        4.91644849       8.03394417       2.48165162    -153.05980574
C        7.42060334       2.20967063       1.62971393    -154.60281724
C        8.95556354       7.44851569       3.49198905    -150.06949102
C        2.05466465       9.75678282       0.51551184    -144.57318085
C        1.32843176       2.65645626       9.84496832    -156.72165244
C        1.62673787       3.32916176       2.95808303    -155.11299794
C        2.40595515       5.84099172       6.77150796    -153.40234088
C        1.33603377       0.47921430       3.29965173    -153.87532081
C       10.05168473       7.78136504       9.28162537    -151.83796748
C        6.93530638       7.25955124       0.12274544    -152.22968273
C        2.32861924       2.12582914       2.61701557    -149.48969593
C        8.41653035       3.28676589       5.39066613    -151.90694416
C        0.30275245       8.29555593       7.05055840    -153.66071715
C        6.29891932       0.27959449      10.42496679    -152.35598392
C        2.46562264       6.46435719       2.14604550    -148.26361160
C        1.53846883       1.76934880       7.67729675    -152.72711620
C        1.48324978       3.89796604       8.72653187    -111.12612468
200
Lattice="10.442332386506106 0.0 0.0 0.0 10.442332386506106 0.0 0.0 0.0 10.442332386506106" Properties=species:S:1:pos:R:3:gap17_energy:R:1 anneal_T=3800 density=3.5 run_id=494 time=1 pbc="T T T"
C        4.09395818       5.83018390       8.23414457    -155.94368270
C        9.35062830       1.54548608       9.75562372    -156.01466786
C        7.07512921       4.87251760       3.93485881    -156.55143678
C        6.90844870       2.73967121       3.43803351    -154.73608160
C        2.00408199       0.70695217       6.09009356    -155.56422567
C        1.66539538       9.54564930       8.85495167    -155.73237472
C        6.31607607       0.72867744       6.69638582    -154.91634479
C        4.94354634       0.17619034       6.76983718    -157.22382140
C        4.50692110       5.95452075       1.47669199    -155.60648995
C        4.44392251       3.41711752       4.67455186    -155.06915528
C        0.02717993       0.70000175       0.58361047    -155.51919915
C        3.72683710       7.67678508       9.71211053    -157.14277085
C        5.73836447       9.06311957       3.16633447    -156.10891799
C        8.37213999       4.97246116       1.84052374    -154.67960058
C        5.38709485       3.26465947       5.52670884    -156.37834757
C        2.05444536      10.24917012       1.09568261    -155.44817747
C        9.41499484      10.05343904       9.41712508    -155.94716812
C        2.87258122       8.31210702       2.96615496    -154.88775980
C        7.03947909       3.15818945       5.56189950    -155.65056857
C        7.62983635       0.80242850       2.39636909    -155.38384581
C        0.41588468       4.10468246       8.86333686    -156.30930384
C        8.22298172      10.20855989       1.16494660    -155.86710015
C        5.51425114       8.04197433       8.08796236    -156.31867488
C        3.24797262       6.31681748       1.66183455    -155.00650176
C        7.03849751       0.96679395       3.68478583    -155.79911919
C        8.79787388       5.68583954       2.83283770    -157.14369744
C        5.13608207       8.55712591       0.96853259    -155.40643144
C        8.10369895       9.45168920       5.54193376    -155.19433526
C       10.29659920       4.59226628       1.62855483    -156.45881965
C        2.70575451       3.64936544       7.99872218    -154.91228827
C        6.91928784       8.87179515      10.20694133    -155.46838978
C        0.23943224       2.01306240       3.74396253    -156.04463457
C        8.53165706       7.00564593       2.88137366    -156.01535093
C        1.76428427       2.87482632       2.58398648    -155.24939202
C        3.52066369       0.76882925       5.33014237    -154.76311394
C        9.95720251       6.24403442       0.70370669    -155.83396573
C        5.71965181       2.75770512       4.34014661    -154.90729540
C        0.48921387       5.39870673       0.56944336    -154.68480489
C        0.52982933       0.07995266       8.08165519    -155.51654253
C       10.30679091       8.82931575       1.58835185    -156.28428017
C        2.71561208       5.97736858       8.02301105    -155.59404330
C        2.43637367       8.11332678       0.00885900    -155.39531522
C        1.86800796       7.10132902       6.41005706    -156.78875588
C        8.56163700       5.94214659       9.46628758    -156.12177398
C        6.31317310       7.85209095       3.40550565    -157.30751712
C        7.34825886       6.43808428       5.22992731    -156.34488276
C        0.38155552       6.33555102       9.73572064    -154.30723445
C        9.75968579       3.70293460       9.68885545    -154.58015981
C        0.34401742       6.92137631       6.50698279    -155.20666972
C        5.65677853      10.27521330       2.24395281    -154.91332078
C        3.07941249       1.31733156       6.51873042    -156.19591541
C        2.81298683       6.29693528       5.85437879    -156.47284184
C        8.89619888       1.05019581       4.35260431    -153.99632436
C        2.24140488       1.99896525       4.02829680    -154.55130948
C        7.94587354       0.82196506       9.41789781    -155.61672173
C        1.85987338       1.87840852      10.18932512    -156.17458544
C        9.93034483       3.33236755       1.85746120    -155.50315552
C       10.32742496       5.25230523       4.53629538    -156.78341031
C        6.68073276       5.13944450       5.40401143    -156.00627543
C        9.24329157       7.51422929       5.78064548    -154.98582336
C        6.75828796       7.38819034      -0.01013994    -156.07015512
C        8.14251310       9.77435727      10.26792455    -158.14945245
C        3.46849380       8.29167138       6.83464230    -156.52643630
C        9.63313517       1.10833872       3.23552536    -156.83366521
C        9.73143928       3.97788121       4.21660338    -155.32522700
C        0.03460505       9.85929520       6.05344097    -155.05066872
C        8.30891167       3.26547397       7.50189689    -156.14445995
C        3.16655376       2.59383360       0.59074258    -155.07902645
C        2.82778361       5.20165992       0.80441150    -155.55305850
C        3.82385681       0.89012634       1.17070033    -154.69767385
C        8.08810855       0.50809988       7.97487190    -157.39812291
C        4.78096967       0.01564846       8.08717918    -154.58703068
C        4.79631990       3.57687477       1.00060622    -156.63619583
C        6.39421604       4.92052100       1.52446566    -155.71029573
C        7.29235061       9.01560695       4.10032800    -154.92216630
C        0.23995644       9.42551027       7.33030849    -154.78975807
C        6.18189210       7.95132444       5.97779671    -156.55144508
C        8.93988960       9.91639387       7.86535272    -155.58826928
C        4.57507820       1.63283619       8.65785265    -155.17939789
C        6.78371504       4.34739359       8.78312931    -154.77084664
C        5.18635146       6.53941668       4.27367072    -154.45748612
C        8.56660755       8.98195132       4.16304465    -155.21056192
C        4.49665629       1.35347247       3.74141460    -155.57553263
C        8.68167161       2.88217772       9.89592690    -155.27486541
C        7.61207394       2.25529318       2.49975862    -157.14353437
C        1.03138708       8.83000494       1.01266189    -156.35924833
C        2.68021257       9.34274434       8.07650712    -155.24613289
C        7.47219890       6.35517216       9.99914936    -154.75558958
C        1.83087502       3.39891654       4.85285469    -156.37828402
C        9.51778916       6.63678098       9.98775677    -156.32951915
C        5.05999924       9.37453080       6.15718554    -155.87478732
C        1.00518309       0.56739353       7.01198443    -156.02732676
C        7.58866223       1.82777365       5.71437844    -154.42381519
C        5.40234066       4.29021138       9.01461493    -157.47202618
C        6.84550232       0.06936894       7.74797046    -156.71087517
C        5.96263445       0.51231858      10.37789275    -155.22565052
C        9.33825414       9.94016062       3.79212256    -156.37127780
C        4.36199197       1.67782176       2.49125856    -155.86819660
C        4.29769853       9.01787294       3.90033645    -157.29727527
C        9.25186473       9.23585663       5.94503912    -156.07939340
C        5.61860136       7.48856204       0.73607374    -153.87480061
C        0.07025716       8.99947355       3.45865712    -155.23018990
C        0.17609010       0.36882527       2.11724555    -155.84246929
C        6.19940389       3.20272600       0.38929433    -155.85188115
C        0.92210181       4.99008782       2.37862757    -155.97064215
C        4.63564373       4.04817900      10.20221095    -155.50063491
C        5.26299818       4.11163705       6.89190805    -157.66515244
C        7.77972559       7.41988282       8.84292210    -155.32466871
C        1.61311062       3.09069021       0.43228437    -155.33091952
C        8.75419361       1.91510288       1.94455025    -155.74991020
C        8.47892328       3.57967331       5.72105109    -156.41988186
C        5.83374474       0.63417955       4.26302999    -155.98858585
C        7.12597293       8.52164286       6.54962928    -155.49892589
C        7.78579259       6.61015304       6.60487966    -153.98742506
C        9.12454137       9.73279679       2.08467591    -155.57732994
C        2.23628813       8.65348775       6.61541597    -155.46672254
C        3.07539220       5.08771319       6.20692237    -155.51096097
C        9.03971830       4.61156371       6.40834452    -154.79705604
C        6.30042301       3.08684743       9.42920686    -155.69499759
C        5.98532563       9.92505057       0.85911261    -157.21969920
C        6.95933419       7.13981946       2.47265033    -154.63259754
C        4.38576916       4.41278347       7.88034790    -155.79941868
C        9.07642310       8.82601597      10.33786729    -153.92096304
C        2.17609853       0.70754007       9.66520357    -154.64371384
C        1.15705220       0.51470152      10.34542754    -155.99477963
C        5.20628587       5.19175014       0.87223549    -155.03151133
C        2.26383501       4.67009299       4.38289752    -156.42623982
C        0.08170509       2.40871193       6.19668888    -156.46413655
C        6.31795569       5.45817581       3.04007623    -155.74127478
C        3.88676142       9.28814139       1.74566559    -154.85130073
C        0.02239515       8.57863711       9.28639752    -156.19496062
C        3.77941425       3.03268306       1.82031782    -155.69830131
C        7.51284046       2.79654015       0.97965786    -155.66113474
C        0.67015757       6.88521451       2.73500349    -157.61858868
C        2.10872460       9.14176077       5.10549648    -155.36692924
C        6.63731354       9.27184091       8.04316475    -156.30207720
C        0.89747983       2.36408140       7.30509026    -155.99578003
C        4.51570310       8.80608156      10.07515910    -155.23861217
C        5.83734734       9.45816344       4.43265523    -155.10782080
C        0.84315360       7.87619186       3.67535640    -155.28104879
C        2.14924085       4.39024892      10.22286589    -154.90678747
C        2.27791127       1.80812118       8.96106665    -155.74354589
C        2.27736827       3.63612456       6.63372138    -156.24040680
C        1.74257466       4.69475778       5.87125360    -156.73741178
C        3.41749345       4.81633785      10.09483245    -157.34824888
C        2.78167027       2.82729282       5.94604158    -154.03722282
C        8.98467677       2.28377986       6.17073969    -156.32498734
C        5.67485421       2.70761325       7.19085114    -154.47190829
C        3.08854953       6.84269334       4.45133657    -155.69885581
C       10.23054100       7.90510667       8.33918399    -153.92175505
C        0.61676696       5.37079437       8.28702454    -156.06413768
C        4.91086184       4.47523906       2.10145674    -154.39233560
C        3.21702155       9.52550605       2.70914827    -155.73670032
C        5.50580329       7.26069990       7.07695662    -155.87884028
C        5.79999512       5.54701918       9.20025872    -154.59516496
C        1.84819885       7.24925510       2.13753500    -155.72772657
C        7.06136622       2.80689895       7.15072126    -156.49789227
C        0.58198356       5.11215869       5.75132341    -156.07971652
C        8.23196212       1.83173129       7.06325628    -156.39788280
C        1.47486458       0.54682318       2.27745181    -155.80222593
C        6.63996589       1.82246894       9.91093253    -155.71838903
C        2.27198003       4.32699971       2.76066030    -155.38816021
C        8.00819338       4.48908560       9.94878599    -154.52341978
C        3.26625715       5.44017323       4.06391559    -156.17811303
C        9.62434272       7.30485008       1.92143093    -156.34430946
C       10.36105971       0.38432796       9.71153620    -156.26614583
C        5.72104064       8.96573438       9.08040163    -155.69532044
C        8.85574529       6.82355254       8.28470634    -154.50737720
C       10.01417587       5.58839170       6.78420583    -156.09304999
C        3.42556537      10.08441100       0.50150137    -156.51603764
C        4.62924258       4.72640848       3.94947807    -155.31096908
C        3.39919848       2.14752831       7.98505317    -157.08750079
C        4.12156771       7.05582134       6.73939778    -155.39730823
C        9.19453632       1.64114828       0.70746593    -154.89654617
C        8.51653656       4.56537728       3.49598846    -156.30527102
C        2.91522770       0.73810582       2.67834339    -155.37031559
C        3.97382959       0.50825964       9.94704212    -153.83552412
C        3.99519460       7.69631224       3.59779076    -157.53759349
C        4.33015330       4.35359633       5.96363691    -155.33481038
C        1.72972015       9.18756084       3.68086995    -156.97625853
C        0.96239146       2.20811472       5.00418497    -156.70987669
C        2.75676531       0.78796169       4.19628260    -157.29212147
C        7.57297785       4.10248957       1.25316343    -156.44886563
C        3.80983276       9.37334038       5.26688272    -156.16444620
C        1.65822150      10.32019887       4.51863740    -155.48487752
C        7.65530520       8.69660414       7.95444670    -155.02993534
C        6.52104861       5.02796216       6.91619691    -154.95800502
C        1.75997159       6.88031706       7.98484432    -154.97779939
C        0.06571579       5.62343616       3.21073527    -157.16493384
C        6.16367023       6.74127740       9.06165764    -155.25825886
C        0.43895702       2.72857101       2.54607037    -157.03623453
C        4.92444732       7.01874062       2.72501017    -154.39997541
C        4.83094667       6.92023810       0.24854631    -152.71864283
C        2.27658510       6.63683319       0.90257569    -155.79009219
C        6.43796942       7.17283812       4.80852699    -157.64649784
C        8.83915242       3.68426371       8.77542287    -155.28685646
C        0.91871954       2.57441086       8.71547344    -156.09643130
C        3.45239172       6.20000955       9.52525543    -156.39145606
C        3.82781446       8.31886321       8.15296588    -155.43511091
C        1.15231138       8.51390510      10.13347952    -157.05035576
200
Lattice="10.442332386506106 0.0 0.0 0.0 10.442332386506106 0.0 0.0 0.0 10.442332386506106" Properties=species:S:1:pos:R:3:gap17_energy:R:1 anneal_T=3800 density=3.5 run_id=494 time=2 pbc="T T T"
C        6.18393880       5.34484518       7.90236034    -156.07467793
C        9.43769647       0.31301831       9.05192539    -154.98684877
C        0.31160755       3.44268035       4.25132413    -156.29731826
C        2.18180004       3.55555152       6.53063467    -156.19972486
C        8.71494088       5.30348310       7.00727494    -156.17783224
C        2.60158181       7.86981159       7.58340974    -156.57996311
C        2.63399481       0.03986924      10.07692385    -155.41813201
C        3.28592006       9.98738085       2.59858486    -155.98229441
C        0.66942451       1.71494425       2.08124038    -156.09452530
C        0.36995095       5.03533445       7.59203511    -157.34334760
C       10.27568320       0.89782965       6.85963080    -157.16987257
C        7.39391274       3.79269689       2.72339161    -155.43538403
C        9.51651520      10.02610102       4.74258366    -155.90807691
C        1.43053688       1.45506592       0.02628607    -153.98860378