200
Lattice="11.24866156916609 0.0 0.0 0.0 11.24866156916609 0.0 0.0 0.0 11.24866156916609" Properties=species:S:1:pos:R:3:gap17_energy:R:1 anneal_T=3800 density=2.8 run_id=487 time=0 pbc="T T T"
C        7.52245244       2.75135513       6.88620564    -155.04966820
C        6.85465314      11.03539819       1.66374454    -153.60793155
C        8.65108689       1.57921085       9.72888865    -151.47957386
C       10.63914159      10.85806304       2.84783490    -154.39357254
C        0.30061823       6.93748829       8.25008336    -155.40762445
C        1.85114724       0.62368092       2.79304267    -154.81682366
C        8.06508787       4.42833934       0.81187552    -148.77296439
C        6.93755578       3.81627717      10.22981405    -154.60421525
C        0.72694700       5.65884168       4.06601995    -154.17789351
C       10.83184241      10.05979053       4.77664290    -155.19615469
C        3.47858110       8.62916325       4.62862176    -154.60600431
C        7.90623427       1.05219080      10.49244780    -131.44414756
C       11.07579214       0.20608223       4.11473790    -156.36645050
C        3.46420531       0.14891653       9.15191105    -153.91136900
C        7.98783206       0.21331399       2.79277270    -155.61297171
C       10.01117381       7.05268583       1.64624162    -154.12415892
C        7.13282130       3.93892132       1.38224678    -150.85271976
C        8.18971179       8.32818281       0.12023807    -156.26734294
C        0.85707377       3.35828791       0.17812368    -154.08275977
C        1.58531887       7.06710661       6.89807298    -153.79852647
C        1.37722988       4.76267206       0.07488380    -152.40037131
C        7.65076592       7.04032355      11.03921149    -154.58128551
C        0.70650031       2.42751741       2.74692316    -153.86359467
C        7.96926052       0.23658860       9.90467148    -131.86698145
C        4.91203179       5.88329747       6.38623638    -153.31329813
C        5.32396902       3.77619819       9.97639295    -153.71139195
C        0.62550882       9.16062877       3.87075444    -153.65052608
C        3.23069434       3.10163845       7.39088809    -144.39742854
C        7.99217404       3.34643182       0.77834214    -151.23091738
C        8.51801523       8.06523410       4.48298534    -154.31452354
C        5.96194811       7.20552140      10.00449211    -153.13401567
C        9.07737742       5.25575714       3.75056249    -154.65851734
C        3.54189981       4.51459408       0.13522129    -150.36287328
C        0.46066981       1.64354194       1.91226122    -151.44071120
C        7.34087654       9.65749340       8.78311243    -155.41180302
C        3.07007470       1.00743913       2.51666305    -153.52933528
C        3.69185572       7.01205567       9.14067364    -152.81533691
C        4.90227920       6.60531531       4.31363674    -154.22972564
C        0.30232915       3.59786191      10.15501045    -154.38172268
C        4.12791009       0.29763396      10.40204230    -150.97396907
C       10.42183995       4.34220834       9.14672542    -149.83162920
C        4.07879843       0.44263483       7.87035104    -155.57407218
C        4.56661914       5.36753509       9.67100304    -152.69467436
C       11.21856015       5.59619788       1.33755585    -154.67439463
C        8.28557288       2.37007050       1.42457550    -151.76575546
C       10.38221091       5.55887482       6.56060188    -155.29208388
C        9.98783284       8.00475005       5.31777101    -153.95059399
C        8.99038027       3.36972780      11.23493820    -139.36117971
C        8.50486554       0.65924131       4.28848473    -153.15810513
C       10.13905985       2.63860979       5.47041535     -96.11113503
C        7.71624438       0.95075037       5.42664681    -155.44894942
C        1.22231331       3.84830211       5.41380083    -154.15061244
C        8.08629160       7.01427165       6.50183887    -154.44830155
C        2.47666281       2.65024091       7.64382549    -120.16901231
C        8.31231095       9.74301697      11.24111372    -155.21082017
C        1.48592570       2.42640379       9.65462499    -153.57121911
C        4.28722488       9.75356821      11.14875096    -155.88336181
C        3.32365328       4.26482880       7.24921120    -151.98854843
C       10.27163657       2.87743013       5.45832304     -97.05947186
C        2.09178986       2.94387597       2.66341309    -111.67470560
C        7.31439719       0.15995372      10.03934046    -134.14904459
C        3.69032590       7.50253106       0.60553345    -150.99080658
C        0.49061937       8.24869977       7.57055171    -150.94960748
C       10.88449740       5.79895501       9.30521906    -150.64796139
C        0.59668863       4.71741869       2.15893312    -151.78268704
C        5.54071948       7.91167862       5.42279976    -154.57643959
C        6.46157991      10.03491974       4.91460773    -153.83006854
C        5.51570246       4.79106368      10.82463202    -150.46798640
C        4.53722638       4.45019549      10.76374302    -154.71682553
C        1.60398040       6.90192002       8.25088201    -154.79756885
C        0.41311272       5.26236010      10.50375270    -154.08368938
C        2.95273992       6.75025432       0.97247041    -152.27027847
C        6.03435575       1.31160519       0.65744040    -153.58699081
C        6.11615601       1.23835390       5.02051388    -157.51965826
C        1.15764476       2.09802162       1.14939949    -153.24433246
C        7.27878393       4.77964629       9.84841693    -152.76703419
C        7.54433108      11.18951611       7.48848148    -155.07515506
C        1.39758996       0.45578452       1.82354302    -152.91163659
C        5.83258850       9.46797595      11.00697283    -152.17475265
C        8.03626880      10.10738362       6.65152481    -115.28287064
C        7.48762658       1.58438523      10.38539429    -132.24140037
C        0.80925121       8.66131193       1.84758141    -155.51385161
C        5.50002183       9.19123637       2.46180333    -154.17505167
C        8.94423826       1.53612847       1.82093333    -150.56594672
C       10.96302431       7.09301228       3.94482687    -154.49427417
C       10.57438305      10.76771380       5.47137148    -150.85836119
C        6.60692387       8.88996347       4.17429957    -154.37847801
C        3.82406124       7.46284578       6.22462686    -154.78474269
C        3.83983186       6.03098115       8.00851835    -155.66961995
C        7.84860738       1.55251777       1.94764951    -151.74761285
C        4.09806739       2.46876625       1.49669067    -153.99524970
C        0.08797173       2.04929241      10.99290075    -152.24820194
C        8.83159417       3.37293367       3.79419604    -153.72387261
C        9.59452339       1.98151923       7.88545799    -152.72633802
C        9.43912313       3.07589026       2.66021847    -157.15263791
C        2.78088286       2.16199275       6.33088172    -153.99195335
C        0.29674757       5.65467967       2.43062204    -153.12203123
C        3.20202150       0.91937223       6.40011723    -155.61089169
C       11.16525274       8.19256895       0.08655260    -154.81985159
C        3.10340449       7.01421541      11.06993159    -151.23572269
C        5.56505034       4.58723793       2.60837339    -154.97845044
C        9.32088845       9.89982331       3.12289842    -155.19650176
C        8.14884540       9.97624672       7.02103210    -114.17014880
C        2.62725989       6.77744233       4.20190378    -154.40430897
C        5.06475487       0.83797242       5.84172242    -155.63667815
C        6.62834132       2.37268018       4.53565157    -156.17566105
C        2.32705561       5.80965248       7.46764896    -152.65598027
C        0.27162706       4.71740745       9.14031368    -151.88793512
C        8.05067833       2.14968672       5.48259765    -154.28296541
C       10.03146640      10.77999733       8.53437078    -154.18918884
C        1.45327083       0.91980643       4.76210963    -154.86315022
C        6.52597850       5.47183268       2.56646088    -156.03870948
C        9.99042003       5.82234097       1.21078343    -153.52344116
C        1.02002188       2.57850819       7.87553667    -149.82233728
C        1.10191101       7.34651212      10.30772228    -153.90872619
C        1.97016933       0.06482232       6.21166840    -153.43629677
C        3.37940165       3.43916579       9.87725850    -152.89375686
C        3.33636427       3.74579305       8.36854301    -149.96266063
C        5.30808591       0.81262581       7.57142911    -153.35540316
C       10.68143656       6.12470500       8.31157979    -150.74509113
C       10.63987276       2.94678937       3.02175045    -154.04010055
C        1.82814373       3.82195774      10.12904854    -152.07386403
C        1.52880559       5.87996787       9.67838216    -151.51945605
C        6.50084899       1.57160675       2.30456954    -155.02516914
C       10.73784860       4.39251235       7.83369165    -152.12470859
C       10.32934221       3.99678444       5.16847877    -154.76736294
C        7.39722109      10.23215377       5.20952514    -152.76106493
C        7.95098145       8.78132390       5.46932423    -157.02828816
C        2.94325729       6.42273829       6.69067016    -155.14642072
C        4.53201825       8.48727264       3.31874887    -155.01384796
C        3.95488318      10.63968153       4.33935118    -152.02989231
C        7.66574913       9.89565006       2.49145480    -153.61001844
C        3.44256288       8.96743300      10.15742891    -152.99876783
C        1.07013579       2.12813428       3.81372372    -150.97970834
C       10.40669925       5.06776951       5.13577892    -153.49698343
C        8.65355035       5.34981845       6.57665372    -156.56372565
C        3.71438679      10.60851149      10.10686618    -156.45933719
C        3.96747043       9.08000961       5.59361069    -154.20869280
C        3.87055196       0.36095605       4.77323455    -155.26898095
C        7.55766075       6.17797866       4.05416386    -154.63822644
C        3.45518388       8.07656150       1.40024464    -153.23330590
C        3.61467865       5.15500288       6.35508883    -155.17564252
C        3.32733159       3.18197639       2.49912639    -152.88520065
C        9.48407278       3.58344112       0.87560594    -149.48806219
C        1.86069735       2.66415550       2.85793620    -112.39141660
C        3.86186799       3.85265534       6.35887963    -150.42953303
C        6.92702703       6.59161444      10.20430208    -154.95688232
C        8.91721898       2.73386346      10.86184260    -139.53867825
C        7.18446390       7.45458926       5.54931346    -156.22155558
C        7.09527326       1.97769468       9.53241953    -148.11084076
C        7.30876161       1.80582638       3.08239199    -153.17278525
C        9.91049829       7.17608365      10.94720869    -154.43798887
C        0.96004289       9.55740280       0.98723653    -154.09409150
C        5.12694872       2.69676537       8.28076971    -154.26995399
C        1.68920026       7.17080803       2.56172519    -154.06904153
C        5.50023555       2.59858706       3.98076635    -153.76285037
C        8.63182919       3.37027898       8.97744431    -153.00553371
C        4.34145468       9.63837067       2.17900073    -155.55864346
C        4.89725105       9.78120618       7.35067412    -153.68399165
C        2.05603036       7.98968809       7.79112672    -152.51782813
C        7.35731083       6.60315557       9.15543188    -150.61367049
C        7.36986434       1.48630815       8.10443569    -154.60674528
C        1.32932183       4.11873118       2.84936472    -153.50411238
C        2.93017510       3.67074198       0.04440443    -152.62214573
C        6.05306227       9.19987535       8.89491288    -155.72998743
C        9.20111270       0.11027772       0.43901164    -155.13135114
C        2.40937332       3.03226795       8.02431147    -123.65816943
C        8.90090842      11.02934641       3.57597201    -152.49530942
C        1.12678968       5.12111066       8.67775747    -149.34625026
C        9.39102385       0.43580802       2.92727295    -151.87776445
C        4.97241460       8.72827521      10.67231390    -155.40252351
C        0.09432903       0.45370577       8.05647139    -153.71891691
C        8.03118440       5.90389377       2.80151291    -155.83711239
C        5.98685265       0.22215882       8.08157841    -152.81487984
C       10.91738849       7.25211335       2.40683112    -155.99082114
C        3.36224744       9.36636679       1.54378881    -155.40783541
C        2.98153649      10.63076134       1.61074084    -153.91821188
C        4.82055767       4.49307539       7.89964255    -152.14692113
C        3.94477063       1.09493684       9.04765846    -152.07896424
C        4.29121816       5.48123656       4.95658774    -155.50275292
C        5.23020018       8.39696838       8.91573415    -153.84350703
C       10.68311261       4.35085856      10.82550942    -151.00889140
C        1.97425259       3.51977370       3.63986441    -147.05399663
C        5.30002062       1.58587005       2.56935178    -153.78817568
C        6.55588869       1.03781839       9.36449951    -152.95107359
C        7.73801054       4.36679791       6.16353538    -154.58399889
C        8.02616750       3.57558956       2.24843872    -153.94567003
C        4.10652638       3.51063978       0.99166401    -155.02728064
C        3.70708641       1.55018930       4.99835402    -153.89144038
C       10.64241495      10.67109904      10.49513623    -152.49647995
C        8.81746585       8.79367493       8.25569644    -154.38905536
C        0.57973352       3.40160651       8.28502170    -150.84871622
C        5.84315100      11.14366656       4.16494068    -155.50836283
C        4.11140830       5.28878321       3.20855698    -155.42964961
C        2.24138581       2.06803268      10.67470986    -152.73633030
C        1.76656855       4.25233153       9.22652342    -149.46814435
C        3.13292098       5.56655766       2.79836328    -153.37344933
C       10.34259313       8.88341675       3.22313524    -153.98268086
C        2.41635874       2.71494321       5.57152957    -149.76578639
C        4.20969911       7.18791724       7.48782905    -154.08828182
200
Lattice="11.24866156916609 0.0 0.0 0.0 11.24866156916609 0.0 0.0 0.0 11.24866156916609" Properties=species:S:1:pos:R:3:gap17_energy:R:1 anneal_T=3800 density=2.8 run_id=487 time=1 pbc="T T T"
C        7.06703912       6.19323184       6.83461928    -155.50671401
C        2.16934938       0.43211508       7.39496010    -155.64025974
C        1.31316875       2.90021992       9.08747872    -153.77893104
C        6.07045270       9.92923856       6.23968882    -156.14839302
C       10.69771337       2.65393047      10.59438317    -154.97930908
C        1.72116896       1.74094410       4.56003867    -157.91506913
C        4.41677572       3.34589189       2.34335492    -156.20581899
C        6.70406731       3.07816249       6.53722716    -155.74211025
C        3.49455420       1.03182510       7.72337603    -156.90560315
C        9.39122633       4.70808231      10.01161251    -156.28774230
C        2.64682132       6.18406418       2.21380409    -156.25967764
C        0.95521722       5.71292524       9.58094625    -154.09410550
C        5.96985592      -0.10098441       3.37009901    -155.42167853
C        4.46542618       0.86477123       3.64466759    -156.96924970
C       10.76726385       6.74630604       0.36689872    -156.48970753
C        2.54619079       8.76603697       2.03499536    -154.97103679
C       10.91000936       9.66067677       0.44935816    -155.54324988
C        9.11059472       3.71818884      -0.07954907    -157.15936022
C        3.79793060      10.92807471       3.94563678    -155.72946084
C        2.64076954       2.90073735       0.55213155    -155.82923318
C        0.46541112       4.07992330       7.83522147    -156.15398425
C        2.02921355       3.95455696       1.50159508    -157.22667057
C        7.64308308       8.31026370       0.62767532    -155.13440717
C        4.67616985       9.96505430       3.01119921    -155.71606401
C        3.46881726       1.45337207       1.12283915    -156.02747831
C        5.53966211       2.09707673       8.23652872    -155.06115605
C        4.86539484       4.80434835       6.46091624    -156.90429812
C        3.98951780       5.44608449       8.70389936    -156.14055548
C        9.23632101       7.25704027       0.65631666    -153.68504160
C        5.08179659       8.17984671       0.69107502    -155.68902964
C        1.79650124       2.18757221       2.77206391    -156.77860797
C        9.85355757       8.91965994       8.20242278    -155.92410499
C        2.35658335       9.80388348       1.35703853    -157.88606811
C        8.81761208       0.69571622       5.39173096    -156.17099176
C        8.97982903       2.29838278       7.31391350    -156.06040991
C        3.02776849       5.16361935      11.23728917    -153.40878271
C        5.43284482       4.35876637      10.29251409    -155.32843059
C        7.15265269       4.35401943       4.10074457    -155.70045570
C        6.56407772       9.65650351       1.56626364    -154.63219363
C        1.34871452       9.95767518       0.50820553    -155.26827102
C       11.03859281       0.73640938       1.84176586    -157.03546281
C        9.96192717       9.86179159       5.84555821    -154.48829017
C        1.44554300       4.60068008       7.04485676    -157.19089808
C       -0.03884028      10.39960135       5.13913102    -156.32111079
C        3.60249635       6.20031850       3.96181235    -156.16473904
C        0.42412741       5.62515194      10.93116810    -157.92997222
C        8.25449283       6.42213086       6.27279363    -157.53134318
C        1.62538660       8.82098668       8.14864293    -155.41716612
C        2.95450596       4.88128920       2.44653890    -156.56411184
C       10.93897467       2.21780861       5.73063064    -156.37345107
C        2.94467463       2.56787821       3.90469165    -155.20887186
C        2.17961941      10.10851973       6.28204003    -155.52731117
C        3.38325994       2.05453429       2.40421018    -156.39500336
C        8.31804777       1.30882677       2.14689705    -155.23982921
C        8.28078095       6.76079431       4.96680152    -154.56029954
C        1.28850044       9.79739300      10.21387469    -156.87288304
C        7.35647843       2.94831919       9.47005695    -155.60535464
C        2.23849490       9.38654688       9.31330685    -155.97459386
C        4.78117611       2.08775159       4.42189386    -155.87607532
C        6.91818558       2.12878670       8.52935388    -157.07016302
C        5.31554378       1.40636391       5.70794209    -155.54821775
C        3.05494525       8.71836514       4.54125341    -155.48683856
C        8.60151404       4.53505539       7.78150911    -156.75028849
C        8.33081500       1.65170847       8.29835136    -155.86574381
C        0.54770296       7.94018273      10.48357260    -155.98025782
C        0.42478771       5.48861568       6.28817055    -157.03887281
C        5.47873936       1.04062156       2.26760644    -154.96293297
C        0.93464004      11.29579346       8.51342577    -156.01503110
C        1.31612715       5.00969267       0.37340944    -155.13176861
C        9.75023861       0.38954340       9.48786358    -155.61722952
C        8.16288373       4.52514532       9.17254110    -157.46741266
C        6.24885647       6.85900638       0.40835004    -155.92116743
C        5.15185325       9.49806612       0.93005171    -157.24461166
C        6.62444928      11.09729958       0.46356634    -156.73826556
C        6.06138628       5.56352052       9.61877550    -157.64131578
C        4.68439262       1.81844738      10.33746374    -154.33333777
C        5.54330668       8.36508967       8.14315358    -157.35024022
C        9.30078709       0.08956792       7.71011386    -156.16175164
C        7.87057601       2.20404025      10.77278694    -155.06931939
C        8.11187105       8.97981778      -0.52853636    -154.37287164
C        8.11232100       7.44214824       2.60083679    -156.68369447
C        8.58487727       1.53799575      11.47937162    -156.33397116
C        2.72371717       7.81111559       6.00775266    -156.41929451
C        4.94680140       3.94150852       3.69217068    -155.79766457
C       10.34738506       5.14965976       6.65587805    -155.63623896
C        6.76323527       8.69207702      10.39338084    -156.58845246
C        1.98733479       6.41914996       3.58354236    -156.59565747
C        2.29715667       3.15270737       8.70171712    -155.45815797
C        4.15390574      10.28453879       1.55537493    -156.24440715
C        1.13233527       0.99472814       1.55376637    -154.55490307
C        6.46465080      10.00628064       4.22975547    -155.13851295
C        6.58872354       7.76266760       8.87196561    -154.75139224
C        0.95304735       9.39591702       6.14171297    -155.81330941
C       10.69697096       0.75548148      10.76477789    -155.03802857
C        4.76116474       1.65411568       0.44361009    -158.69802171
C        1.63801885      11.31705343       9.90828231    -155.58550551
C       10.02040896       3.75073122       5.49020174    -154.94208381
C        6.31407621       5.46760318       8.17258008    -155.73327820
C       10.93915465       0.92533290       6.14219667    -155.58488975
C        5.29106669       8.82447376      10.63364100    -156.36823798
C        4.50876727       6.86046870       2.83586632    -156.05168675
C        0.84025590       0.32587823       6.13332147    -156.06919243
C        9.83124022       5.66181132       2.97031033    -155.32793185
C        9.93007096       5.30323774       4.88223408    -154.24152004
C        6.49474097       5.78070968       5.55703004    -155.73037592
C        5.85762803       3.96410708       5.91173409    -156.03366743
C        0.19110351       0.88327640       7.49238476    -156.61170440
C        2.51665180      10.43487715       8.04485153    -154.14885137
C       10.43042268       3.24279790       0.73417764    -155.09861463
C        5.19728660       3.13157114       1.14593490    -156.40134843
C        5.24582457       5.01456334       7.82069945    -156.75802748
C        9.50509653       2.49702289       2.57761955    -155.15617810
C        3.16120011       0.02862031      10.07948693    -156.69055636
C        3.64545499       7.49160861       1.93815564    -155.97100042
C        8.91145966       6.26058883       2.18345520    -156.68650900
C       10.60320212       2.09569314       3.97974272    -156.03647022
C        4.70473020       8.28717019       6.95493496    -157.38293337
C        2.89117599       4.35281583       3.67785114    -155.38224234
C        7.33735571       5.42088749       9.90039699    -154.84602562
C        6.83224581       5.66859427       4.09831486    -157.54291421
C        3.41342885       9.79272480       5.14305680    -156.37625372
C        2.93488829      11.01052740       1.71896422    -154.67411356
C        1.52895183       8.86464273       3.52115728    -156.04357840
C        7.91971017       3.59367740       2.82036567    -155.61699102
C        8.46940976       0.21184717       0.66010296    -154.26383993
C        9.09660138       5.97650388       7.20609508    -157.31414146
C       10.28606860       5.59061855       9.88810221    -156.12308258
C        0.58955023       2.40788850       4.77731782    -156.30572514
C        1.10458707       6.91587961       6.83816261    -154.95156887
C        0.04011093      10.89034670       3.73320580    -156.94928151
C        2.76431359       4.16729165       7.01883861    -156.34271162
C        1.12361306       3.28801752       2.57634845    -156.35199816
C        9.73378182       4.14000240       2.15463613    -155.38118369
C        4.54687774       6.08064399       1.14923076    -153.68732824
C        3.70995482       5.33693873      10.28703599    -155.92064309
C        0.14846658       4.60861039       4.88385389    -156.68036493
C        1.04497591       8.04679755       6.35909336    -155.88983289
C       10.60157106      10.68147031       9.56671670    -154.65154128
C        6.32027423       3.77041637       3.23445140    -155.82429030
C       10.11732743       7.08694925       9.21567972    -156.05660955
C        0.06756160       7.14915435       1.89318349    -154.75260437
C       -0.19477732      11.12895331       0.56034083    -156.64895143
C        4.27786599       7.22989724      10.78806262    -154.46354684
C        7.96275879       2.40390647       3.11452942    -156.46413737
C       11.14256419       3.20004174       8.73591305    -155.43221675
C        8.35958908       2.47035231       4.73356052    -155.12659202
C       -0.17211915       9.10120209      10.46243637    -156.09377019
C        4.20317488       2.37741587       7.90035122    -156.97700978
C        3.51623037       6.74720593       8.31184976    -156.36438165
C        8.24745117      10.68541859       4.44232143    -156.33773891
C        8.41122043       4.29869852       1.08220223    -156.45255031
C        9.56945012       7.19077440       7.91542443    -157.37527079
C        4.84707077       4.45682095       0.44714105    -156.22710606
C        3.11304459       2.94453964      10.23547212    -155.65257921
C        9.52416301       2.32848419       4.96475426    -156.29911421
C        6.15257918       8.46596767       6.38932976    -155.33671821
C        5.40696165       6.42477429      10.66904054    -156.69121653
C        3.96316219       4.97089603       4.48126429    -157.87990862
C        3.14351722      10.14654021      -0.20292698    -155.37632868
C       10.37671032       1.52528476       8.08651657    -154.48327424
C        3.81734579       9.77450197       6.83359565    -156.28007954
C        8.45014080      -0.00511571       6.65900517    -154.72757285
C        7.53640078       6.98211173       3.87425277    -157.22273364
C        6.87779164      10.49067051      10.20782291    -155.04486865
C        9.08494777       9.15149485       4.18964274    -155.20016776
C        8.37140017       3.40788326       6.96637485    -156.73622402
C        3.43185416       3.64109051       8.32070245    -156.36862428
C        0.79812178       4.12539039       3.74681668    -155.32456213
C        3.15999651       7.49102367       9.29695129    -154.79102363
C       11.12467882      10.20514573       1.96554613    -155.69666223
C        6.42205212      11.48870801       8.17838439    -153.92767529
C        8.93787152       1.71740065       9.98115113    -155.39796502
C        7.37416133       1.51189886       5.58227204    -154.57911040
C        3.92703149       0.17071869       9.09414918    -156.19485776
C        1.86869515       7.55191268       8.31270466    -156.20642289
C        6.10131903      -0.34124165       5.54383536    -154.89067581
C        3.42737719       5.10490134       5.80382568    -155.55984224
C        0.69209640       6.57122062       2.77043286    -155.76345065
C        7.48968508       8.90932242       7.14953681    -154.34082589
C        9.24340767      10.05970054       8.63717230    -156.19215438
C        0.34059485       9.68091311       3.21899574    -156.37667161
C       10.53283049       0.61995423       3.22397889    -157.18634713
C        4.23686462       4.15690914       9.79976647    -155.96355103
C        1.73956052       7.68438817       4.54607908    -156.20491766
C        9.36626555       6.50087149      11.09274387    -154.82183662
C        4.24479493       1.25004126       6.56054564    -155.97772830
C        9.46194666       9.96278207       2.40346777    -155.71745585
C        7.87107095       5.68795321       0.57097531    -155.16899589
C        6.30004913       6.71447232       2.87117587    -156.10398208
C        0.48499279       7.27755782       9.28729994    -157.49905946
C        1.87556808       0.63259211       5.24996408    -154.67202609
C        5.72066432       0.97858519       1.00905106    -156.74398192
C        9.17204616       8.29705777       3.12864649    -156.56031596
C        9.10648896       8.46444910       7.24534166    -155.68181067
C        5.35121328      11.33763848       8.86627379    -156.10378015
C        3.81959552       7.27122483       6.55799219    -155.69170213
C        6.31559478       6.14452514       1.59162937    -156.02097124
C        4.86613725      10.86242753       6.61831876    -155.81322123
C        8.95637557      -0.14845534       3.12494568    -156.93458116
C        5.13522773       9.57942768       9.19657949    -155.37511448
200
Lattice="11.24866156916609 0.0 0.0 0.0 11.24866156916609 0.0 0.0 0.0 11.24866156916609" Properties=species:S:1:pos:R:3:gap17_energy:R:1 anneal_T=3800 density=2.8 run_id=487 time=2 pbc="T T T"
C        0.89194350       9.36998885      10.04437986    -155.29877006
C        2.25471547       7.02720761       1.79870598    -156.80949017
C       10.86837807       8.46428037       2.22083450    -155.84701870
C        6.73578854       6.04329843      11.10404878    -155.33065307
C        1.89403839       9.72508660       3.42716347    -155.46177783
C        0.37929362       3.25215679      10.22967906    -156.03403571
C        9.41040530       6.88997394       5.63786292    -157.06997175
C        3.11675665       6.22462686       1.03797362    -155.92305789
C        9.95827136       0.13246986       0.82338628    -156.64285474
C        1.42712894       3.33241599       0.87454632    -155.61802646
C        0.24121967       2.89075979       7.67822390    -155.49852769
C        3.29773637       3.17060399      10.51763355    -155.22105214
C        8.03869851       7.44643398       0.12554181    -157.16241371
C       10.77094216       4.85497858       4.33077970    -156.40576381