200
Lattice="14.172425494135853 0.0 0.0 0.0 14.172425494135853 0.0 0.0 0.0 14.172425494135853" Properties=species:S:1:pos:R:3:gap17_energy:R:1 anneal_T=2600 density=1.4 run_id=161 time=0 pbc="T T T"
C        2.50438096       5.42570051       3.41860162    -153.11155308
C        8.42672578       9.24283073      10.24348901    -153.36539854
C        9.85138051       1.97406297       6.02058807    -152.86616700
C        1.16584073       9.29145633       6.45561067    -155.15191500
C       10.25366481      13.42672915       4.47575118    -155.20060296
C        2.93338028       0.02073865       4.60369984    -153.18180586
C        1.21145751      12.25842526       8.04934244    -153.85876612
C        1.83921235       9.07711256       8.50216561    -154.77239514
C       12.75842843       5.14274804       2.53503592    -151.88161946
C        4.09988428       3.73793471       3.00264093    -154.52813732
C        9.42148833       6.52294387       0.19341534    -152.61583247
C        3.24309030       0.76813554       6.42753510    -155.32953656
C        9.54262005      10.84719182       1.89003466    -154.14719839
C        6.18089238       3.79385910       6.23250835    -155.14018772
C       12.63244974       5.39753990       5.90264515    -153.93546820
C        7.56533994       9.45102367       6.30337048    -153.26210822
C        6.43015700       2.36241578      12.42316553    -154.53567709
C       10.92787544       7.73169587       8.85887138    -152.85538498
C        2.20551286      13.83499422       9.76895369    -154.41785690
C        8.93643707       3.58307261       1.97285832    -152.12161040
C        9.30112192       3.04491727      10.19785380    -152.98565642
C        1.16315789       4.06832229       1.97504087    -153.91097110
C        5.58944872      11.69223686      10.30624451    -155.47752744
C       12.80620368      12.78712759       5.16900954    -153.72013808
C        6.82953595      10.53999032       0.02675938    -154.50802102
C       12.74006097       0.58046003       1.19442226    -152.11033346
C        1.47038915       4.82624943      13.12366601    -152.91417004
C        6.97263493       1.76715973      13.12338256    -154.70253942
C        0.82953616      11.94967897      13.27747934    -156.31354938
C        8.89019244       5.79030033      10.36831973    -156.96692070
C        8.38617848      13.56739048      12.25832605    -155.89315462
C        1.02683758      11.05039605      12.03455763    -154.64991958
C        4.18928394       0.96530232      10.17417168    -152.75230216
C       12.28518280      11.47704275       7.05900169    -152.67468309
C       12.63100415       9.16805702      13.86861121    -151.55317982
C       12.07378690       4.36702033       6.94905201    -156.97314407
C       12.31415124       4.30654659       8.82764953    -153.60534640
C       14.08407459      12.34966733       2.38021634    -156.64053076
C       11.15136041       1.57449978       8.24082608    -153.27918584
C        8.52645714       2.76516777      13.85062640    -153.03140900
C        2.82416757       5.70209116      10.25458602    -152.87827246
C        4.71237399       1.29359097       0.93862982    -150.91023150
C        7.20041415       4.02655615      11.69956400    -153.72383264
C        4.18725728       4.52772146      12.98187089    -154.05366194
C        7.45930185      13.58530442       2.65089550    -153.81211348
C        5.78516991       1.75599186       3.49844906    -152.18124493
C        2.16941569       9.16648388       6.00083171    -148.86974953
C       10.63118988       2.11218743       4.04763055    -153.80268788
C       13.17797474      11.73292589      14.09127419    -155.11407165
C       11.44626024      13.23541558       7.20388640    -155.27347118
C       12.36772300      11.49841477       4.94223656    -153.86085887
C        7.10225593      12.12225659      11.22329965    -155.13823837
C        2.84701352       8.77747914       9.88964606    -154.57745247
C        6.71788558      11.69840187       7.27138966    -151.36388109
C        8.59506585       0.46412001       3.67585948    -155.24930059
C       11.32690008      12.04735533       6.62195243    -155.30239460
C       10.25141139       7.48953163       2.96559421    -155.41559047
C       13.97596733       7.70652564      13.05820357    -153.84342331
C        0.03527205      13.10351282      13.33993722    -154.39673087
C        6.47601897       4.65942581      10.21980689    -154.12051132
C        0.73964188      11.44508393       5.27798132    -154.71911432
C        2.56363588      10.95892722      10.52811383    -151.37857950
C        9.85325127       0.28592443      10.98936959    -155.76723512
C        1.70025171       7.25646609       2.74423509    -153.01408759
C       11.70459522      13.29965919       8.26476331    -151.25205487
C        0.43800164      13.54105811      10.93698831    -153.82657995
C        4.13372803      13.63210177       5.00031516    -154.38775773
C        4.02159580       5.67619813       6.98938674    -153.15196241
C        9.47592462       1.04390968      10.19457997    -153.52169387
C        1.09814472      11.89477499       1.88833397    -155.13628912
C        3.70934892      12.24177266       8.41224157    -153.34214828
C        3.54951231      10.41669022       6.71259927    -153.90414732
C        2.85618308      10.23407852      13.15650352    -153.20204430
C        5.36514174       3.44003032       5.41084781    -156.92375925
C        7.05805214       4.83632603      13.89074854    -151.75609421
C        4.21906021       1.13558118       7.15045635    -156.38009046
C        4.77949460      12.28390728       3.00234331    -152.37470031
C        2.55479228       4.05913856       5.38608858    -154.24736831
C        2.48317902       1.72611639      12.51786568    -153.28728757
C        0.20914815       2.91708199       6.94686946    -153.82641195
C        5.74934202       5.53477150      11.26730503    -152.14965570
C        3.71549976       7.79691737       1.40746641    -149.04112797
C        1.47743284       6.16949775       3.92200617    -156.08717478
C        0.82694544       8.30019437       5.92509427    -154.79077605
C        3.35430132      12.74930139       4.10933729    -151.32166210
C        2.60854829       2.78551937      12.16490142    -155.25004671
C        7.39262059       7.88084647       8.44475311    -157.85741380
C        9.26142496       6.49390457       2.12967621    -154.43082748
C       12.69801138      11.15702938       6.19197522    -153.23966575
C        2.35566970       9.62506105      12.30612964    -151.93879328
C        4.05242083       6.21088123       6.00706758    -156.25106436
C        6.09806872       8.55981903      11.94792159    -152.68467208
C        8.03440470      12.87573360       0.41639436    -153.90408341
C        9.08489322       9.49930912       5.54574096    -153.68288966
C       11.06575896      13.51950185      12.87067404    -151.74245336
C        4.12603241      13.06504886       6.36725977    -154.65175158
C        4.62210982      11.01462485      12.79965602    -153.18778280
C        7.77411394      11.43490813       3.39927043    -154.44394659
C       10.43504351       0.21569298       2.92119200    -153.73221228
C        7.24145750      14.15806883       4.51186252    -154.36803216
C       13.17548040       1.35694030       7.48068804    -154.65498403
C        9.89846131      12.23042055      11.77126230    -153.20506006
C        0.92940641       0.90998877       1.12729882    -154.80843088
C       10.81716045       5.80168079       6.32010811    -152.61507205
C       13.12224877       1.57448561       6.29329389    -155.42886681
C        0.68968975       3.98299012       3.64951294    -154.53246826
C        9.53187735       0.86163954       3.22303632    -155.25188852
C        8.08298778       9.92735889       5.31593508    -154.90872884
C        4.88859393       5.26134290      11.32039493    -150.33475164
C        1.92100141       3.91504751       9.52316131    -152.94334630
C        1.65376616       5.20608461       6.79844165    -154.71201620
C        7.25635272      11.86543807       4.69475767    -154.92937893
C        7.98990329       9.16628546       8.25052002    -154.88466090
C        4.62253499       0.45142577      10.94425876    -154.80975009
C       11.75863467       6.61609922       9.94506025    -155.25482536
C       12.07303576       7.49704302      11.89518599    -152.80147014
C        6.64720769      11.74889822       0.78847581    -154.97935338
C        1.43454708       7.10340390       0.82684765    -155.24508518
C        2.02584902      10.51364378       9.92568654    -150.42119698
C        8.74938940       6.90793781      10.30311240    -152.96774775
C       12.47169192       1.90784940      10.96452533    -152.41473544
C        7.81843111       2.60467922       2.86220636    -153.74457694
C        5.40428598       9.63026233       8.24125125    -152.26158842
C        6.69933388       1.82049057      10.92019398    -152.79534313
C        3.87223261       0.93863691       3.75807372    -150.42002517
C        1.39978070       5.79374423       4.93386066    -153.65369106
C       13.22375168       4.44743467      11.87985143    -151.11948051
C        0.69088448       8.23352728      11.55666344    -152.61760710
C        0.10448323      12.05822558       3.91209964    -155.81604914
C       13.01493516       6.29610003       9.29141381    -154.02610734
C        7.80146672       1.53861520       6.35892639    -152.95759783
C       13.46648281      11.71754881       6.90245308    -151.39535577
C        5.22313404       2.36261419       4.31017473    -155.59981958
C       10.37139515      12.65343910       2.44377967    -152.84462086
C       10.14724407       1.69445519       0.46551316    -152.27617108
C       13.34577626       8.28352760       3.02543019    -153.51402924
C        9.07687163      13.74450328       5.27534525    -154.87717050
C        9.63815637       4.72382531      10.75287433    -154.76292502
C        3.73816147       1.89876488       8.68106413    -153.98826892
C        6.53462195       8.79868109       4.22733690    -152.79671257
C        7.95230384       8.99433143       0.58290194    -152.87938317
C        5.60277080      13.50229653      10.98800904    -154.67426096
C        6.38566975      12.10553313       6.39396062    -154.85036426
C        0.24858576       1.14880406       2.25736976    -156.04844614
C        8.54051619      12.65148331       9.55079754    -154.14744098
C        1.46035507       0.38863342       6.64022069    -152.63009350
C        2.09920549      11.15769549       7.74194253    -154.91957034
C       14.00258315       8.77868380      12.16758001    -155.77591041
C        6.97233731       8.54598675      13.30663202    -154.96189333
C       10.69421466       5.96714386      12.68351299    -152.99578899
C        2.31782933      12.77333782      11.36756076    -154.40918660
C        5.02195646       4.79718179       4.13666173    -155.71093840
C       11.25168701      10.80361161       2.13133438    -153.83411830
C        1.92061876      12.99204669       1.12940200    -153.49294672
C        1.58896983       4.38663497      11.45870363    -153.60016920
C        0.80621401       3.20757420       5.14580928    -155.79738837
C        0.01552561       7.59245179       6.12688127    -150.85529475
C        8.12987016       0.65263027      13.27125765    -156.02582389
C        9.96613464      13.15195417      10.06546917    -155.52313554
C       13.88982733       0.85552839       9.50207274    -152.89663806
C        4.12091616       3.06507046      13.57490186    -154.49537823
C        6.22900776       1.47690846       5.17552886    -154.64208504
C        1.09204774       1.14505545      10.68119020    -154.85493266
C        3.73233660      12.03444425      12.41355663    -156.07574739
C        6.07064508       3.02161781       7.22352938    -154.96458768
C        3.96883186       2.74912458       5.77344932    -154.28809164
C        4.92215424      12.15291155       7.23496653    -156.81445208
C        2.59817408      10.94858135      12.26476033    -157.41953537
C       13.21731740      11.59748002       2.53152116    -153.08913946
C        9.60796910       9.85556138       3.70057619    -155.15014164
C        7.45563119      13.74789049      11.12660119    -155.51227880
C       13.08256597       8.10418973       4.61668178    -154.49434553
C        0.50345557       4.55643480       5.97213255    -155.54381294
C       10.34334792       4.82028284       1.50582021    -152.38226216
C        4.01229869      14.08855308       3.99488078    -153.67567984
C        1.04700211      10.58546964       7.33838271    -154.64234889
C        6.03979171       2.61064581       8.91395960    -153.43259990
C        1.44252616      12.35274275       9.98555086    -155.19072415
C        9.78716525       4.67055117      13.20854466    -153.13252797
C        4.61661092       5.46280392       4.99424936    -156.65432945
C        9.31671159       3.40825574       7.50666609    -152.03250830
C        0.47279495       9.61382232       7.10825087    -149.56424160
C        8.52285735      11.01608461      11.00002725    -154.60857422
C        7.51855676      13.85778348       0.34575900    -154.93437348
C        0.00050195       2.61814302      11.64913851    -154.03875863
C        4.83329313       6.57905250      12.72519409    -152.53921732
C        5.46962086      10.86697652       5.74092360    -152.40783548
C        8.90963701       5.30884887       7.58112802    -153.50133382
C        6.46723206      10.69897659      10.15369252    -154.49033965
C        0.21633357       2.75105203       1.07953774    -152.71996148
C       13.13992178      11.46209084      12.57867956    -154.01909777
C        9.68346562      12.67163650       7.44905518    -152.10403624
C        9.47259410       8.61020201       3.30896373    -157.00520532
C        7.07505905       6.77512801       8.16883016    -153.83795854
C       12.16026704       3.54952648       5.80640021    -153.19870332
C        5.33771810       0.30983331       8.07577401    -152.97547475
C       11.93696630       6.15818815       6.42743589    -155.07599624
C       14.11763490       6.81842477       1.69050109    -153.52750125
C       12.36586642       2.42172738       3.41141620    -152.43534877
C        3.26427807      13.18106433      10.98674769    -153.50944423
200
Lattice="14.172425494135853 0.0 0.0 0.0 14.172425494135853 0.0 0.0 0.0 14.172425494135853" Properties=species:S:1:pos:R:3:gap17_energy:R:1 anneal_T=2600 density=1.4 run_id=161 time=1 pbc="T T T"
C        0.28436688      12.93019823       1.88270752    -156.68133029
C        7.16034870       8.03953512       2.94083498    -155.40133616
C        6.86709288       2.40243871       9.75860782    -154.55108371
C        3.31107542       2.95273982       2.18796739    -158.11280723
C       11.94416590       1.36025381       4.05672925    -156.38394577
C        0.63941449      13.30901299       9.62902933    -155.62442059
C        1.26335835      10.08895288      13.53534662    -154.18144807
C        8.15861184      11.40063921       2.41081461    -154.55533295
C       10.05498158       9.99175839       4.09469717    -155.80896171
C        7.69979374       2.58067113       1.93432349    -155.04105329
C       12.56549920       7.55757345       8.76935834    -156.03038323
C        0.43261754       7.80438624       6.49785868    -156.94153317
C       10.41864602       2.47911153       9.44483032    -155.70533701
C        8.78046953       3.98746860       9.98550835    -156.03648078
C        7.90441522       0.14111385       7.54632054    -156.91622042
C        3.03047557       0.63981698       0.22805984    -154.93497134
C        3.31987650       0.89241354       9.61725204    -155.68419732
C        8.83056905      10.06311655       9.70934446    -157.28708028
C        7.86036732       7.97996842      10.88385588    -156.14469829
C        0.96481196       0.67373585      -0.30954278    -154.91478307
C        8.01086430       2.44309940       5.30217365    -155.19644899
C       13.50120525      12.83979232       3.18750605    -154.88979392
C        2.67603738       0.63916930       4.39845477    -156.37302217
C        1.33589566       7.16064633       4.27658608    -154.84094545
C        7.27284942       4.89284566       0.84483104    -156.52272009
C       11.65438231      10.67141122       8.41720191    -155.31198226
C        8.00389147       6.91515157      12.56469137    -154.07253813
C        8.74162291      13.58915932       5.43244659    -154.53537047
C        9.91366832       1.21035773       7.10656435    -153.06949032
C        4.29414572       2.26607163       3.08182227    -155.01312401
C       13.47573740      10.18334124      12.61892925    -155.89167399
C       10.45257480       9.82929987       7.60842411    -155.78141068
C        9.02933732      13.32545300       0.60470196    -155.51780456
C       -0.25667680      13.72469023       8.66541778    -154.70112345
C        5.33406161       0.69991232       4.69149801    -154.75952310
C        3.45278551       9.31869573      12.44296441    -156.24578374
C        1.87652834       7.47338924       3.17751449    -156.56483579
C        9.30370130      11.50307750       9.81898235    -155.86963663
C        1.38040275      12.32874883       2.93705094    -156.48926917
C       10.09008668      14.03700797      10.39609769    -155.41949403
C        5.01246093       6.86700784       4.13741286    -156.34065235
C        9.40567190       3.59140600       2.79267644    -156.51168182
C       13.17669922       9.83668371      10.34915861    -157.20006622
C        7.49453450       7.08174843       1.78396823    -156.09956532
C       10.53697160      11.28877625       4.64304249    -156.09002727
C        1.37328819      12.16312987      13.60277902    -155.88537155
C        4.05318614       2.76889511      11.40438073    -153.35841751
C       11.64358292      12.03333880       2.33553069    -155.71935604
C       11.35557089      10.71157588       1.56039822    -155.09122603
C        1.97608963      10.12412884       8.60685731    -155.46272074
C        5.19892753      13.03174366       7.36611815    -155.43223422
C        0.46598368       9.39431979       2.32654537    -155.20723998
C       13.98634155       2.94242229       9.74809188    -153.10380701
C       12.44069682       1.02289198       0.51525979    -157.68940412
C        1.96007479       1.51640701       8.94298473    -154.95463397
C       11.65093841      13.38310643       9.39030899    -154.74311696
C        4.48990943       1.44606926       4.13557045    -157.48246196
C        7.86110428      12.19610910       1.47128201    -158.44109166
C        9.53138132       5.84537438       3.66490420    -155.60409608
C        6.56377463      12.65813017       1.82111416    -154.48524899
C        2.41894958       5.01336797      10.32831098    -155.25292452
C       -0.05732094       5.94303656       9.29961964    -152.49606717
C       11.50547264       1.98531588       0.06096311    -153.38495894
C        3.59200124       8.15158232       5.83259085    -154.72018793
C        3.72448508      10.85376782       3.66481916    -154.59472771
C        2.84164217       3.02445229       6.41791202    -155.79603351
C       12.09000015       4.55238148       8.45541077    -155.94876942
C        1.08680253       8.36843460       5.58460175    -154.67309885
C        2.14196370      12.24113490      11.41415970    -154.49082342
C       13.27851393       5.01530959       9.29473016    -158.53326240
C        0.21221081      13.55544312       5.54992182    -154.67796067
C       10.17203164      13.26825309      11.85197427    -152.84878865
C        0.72157912      13.70720145       1.14109851    -154.43119621
C       12.67247267       9.93105789       1.49292330    -155.90518613
C       13.88835340       9.71658657      11.58308084    -155.38523765
C        1.81935678       2.19607402       0.08809240    -154.80703705
C        3.92163769      13.74295848      -0.13864445    -156.56220791
C        6.81795708       3.67731924       9.94664756    -155.92149179
C       13.23861855      10.36338773      13.72960806    -156.13274638
C        9.71175378       4.58985338       3.74852151    -156.21152304
C        4.39057490      11.23059844       9.85825414    -155.18691645
C       11.34329757       4.85995146      13.78252790    -156.25024520
C       12.04528615       5.93935173       8.32220415    -154.91118619
C        7.43964469       3.82335192       7.38695162    -155.74714363
C        6.41152026       5.51784962       9.96776447    -153.52537167
C        4.79125771       8.20074646       6.32015063    -157.56057082
C        2.17212262       3.98687336       5.61415126    -155.38694735
C       13.65688934       7.85203393       2.75567224    -154.73763694
C       11.78821253       1.13307975       2.24591844    -156.51771723
C        2.92371469       6.18619287       2.65047033    -155.22436702
C        1.29822677       2.48557416       7.25089633    -153.30044113
C        3.17728773       4.21547458       2.32580840    -157.04521303
C        2.31697898       9.10861787       7.40847953    -154.53829443
C       12.95335597      11.67090736       3.12789682    -155.99256806
C        7.92376058       0.79685029       5.45886399    -156.12896984
C        2.34791739      13.57145796       4.24158019    -154.82578801
C        9.09822948       0.20845654       7.78424722    -155.03748220
C       12.56524410      13.81152468      10.24884619    -156.99127381
C        2.02158312       4.18541487       9.35713135    -155.62419511
C        0.24184535      11.25820633       6.98421380    -156.92047176
C       10.36391211      12.53115941       4.88251396    -157.55910693
C        4.30908345       5.61215294       4.16164771    -155.27077248
C        8.26001554      10.72237527       1.33183243    -153.99430591
C        1.88045410       3.89023159       7.07843209    -156.10925396
C        8.67339685       2.51665428       3.23519626    -155.41716061
C        4.93180566      12.36670259       8.98069755    -156.61481792
C        4.39254487      13.38613933      11.25248067    -155.04365628
C        9.34189599       0.20556253       1.53252106    -154.03608366
C        3.03812868       9.30918603       8.49231577    -156.00576232
C       12.54694750      10.80848692       9.50879047    -155.83569037
C        4.52334218      11.02942086       1.70179651    -154.61021449
C       11.23693352       9.04946216       3.62958651    -155.50883573
C        2.99002747       2.38660811       0.87634059    -156.58993920
C       11.87941208      12.63288909       0.83730548    -156.29427119
C        9.07913922       2.49351071       9.94310445    -155.59196406
C        3.30345066       9.55856403       5.43372211    -155.14131031
C        0.86907297      13.06893210      12.67200498    -155.33377244
C        3.12295065      11.29536643       6.59707983    -154.64178589
C        0.72400828       7.32503229       7.58114219    -152.96129774
C        5.80611676       6.99594857       8.55246354    -156.03644487
C        5.26260424      11.80707602       0.81055645    -156.05809243
C       12.45583297       4.83653861       0.20130088    -155.36122131
C        9.06716352       5.57767143       8.16745543    -154.01175297
C        4.05644580      13.56948800       9.27933890    -154.73959129
C       11.49550942       7.98922301       9.87062667    -154.55796322
C        9.98701062       9.38920355       9.13836579    -157.31877729
C       11.25284915       0.67383647       4.71801462    -156.16339216
C        5.43491259       8.36975263       9.28672274    -155.63210179
C        1.63157214      10.91142125       7.21835644    -156.78621581
C        7.21570620       4.94363963       7.78421888    -156.64429004
C        3.32670761       5.51493010       5.62336333    -153.61195510
C        2.93712180       8.69705063       0.69854326    -156.50232844
C        6.91146674       0.74545966       7.96272057    -155.75957639
C       10.70422039      13.73347713       5.21318499    -156.50372941
C        0.86923170       8.17150875      13.56131051    -156.05069125
C        4.28659181       8.73201400       9.95143784    -156.09648199
C       14.36176910      11.79525622       3.67070072    -154.84213207
C        7.36212153       9.16393284      11.76124240    -154.62967854
C        2.93074421       4.12532379      11.13551564    -156.68843073
C        1.95223744       8.43035393       1.73592371    -156.15111453
C        9.14165379       6.15730946      13.22284464    -156.31486546
C        2.31825450      11.96260422       2.04580379    -156.78864512
C       11.66572025      13.98106941       0.51201430    -155.77619247
C       12.44915776      13.79419180      11.73060162    -154.67644913
C       13.08935457       6.68622438       2.53242819    -157.32125844
C       10.22763006       5.54961003      13.72833254    -157.08998468
C       12.23814452      10.92319854      14.30281181    -155.68291069
C        3.66284920       8.97252006      13.85985265    -156.38089807
C        4.06971119      10.60353948      12.26125974    -156.20550785
C       13.95733059      10.44044321       1.75670048    -156.11130245
C        7.02555477       6.08722682       1.22636549    -156.58753542
C       10.95110404       5.90793146       1.43984757    -155.13758692
C        5.51851573       0.56786500       7.93871249    -153.98049261
C        8.38158661       9.49960674      11.03633701    -156.79776840
C        3.54377248      13.88096956      12.37164877    -156.47058791
C       13.56367730       5.34138875       2.70652227    -154.82691783
C        6.95351633       0.87817592       6.46965555    -158.25014748
C        1.53449103       2.68706353       9.85855176    -156.68490195
C        2.13283666       0.67659726      12.26339978    -155.13022147
C        4.11652271      12.07666390      11.28816684    -156.82663352
C       10.62445798       3.49952617       8.82840067    -155.07969495
C        3.01260414       2.62484658      10.51758372    -157.07181902
C       10.01063606       8.02190462       9.56305669    -156.61231372
C        3.42727514       9.54797723      10.83534367    -155.67165080
C        6.20505636       9.23285335       7.21800213    -153.68766757
C        3.89160632      11.76684051       5.57788402    -158.07120614
C       14.36205255       7.32266549      12.82400424    -154.46879905
C        5.06971753      11.62846095       2.54705414    -154.17972094
C        0.12677476       3.83622048       9.08862057    -155.76081935
C        5.65632839       9.51477123       5.90026418    -155.73720267
C        2.09381997       0.75360880      10.71538826    -156.23511557
C        4.40875812      11.82755518      12.64587103    -157.69174066
C        4.70626568      13.00373894       5.92641231    -155.04964531
C        4.92620755       8.17936027       7.62453816    -155.57452134
C        2.63656718       5.20930175       1.83178600    -155.77401892
C        6.41458150       5.83349789       8.57163884    -158.34333303
C        9.73016376      12.71208460       9.90541997    -156.89510474
C       13.29206277      11.73062996       7.10136307    -154.01427192
C       13.77318827       8.40511284       9.62793805    -154.54679944
C        3.64653673      11.98861062       2.54210796    -157.10204103
C        1.62865262      12.68252092       0.77470021    -157.63952972
C       11.56000813       8.88429671       7.80846790    -154.62617471
C        4.37937868      10.65155566       5.10992470    -156.20548834
C        1.42043135      13.47756564      10.97784741    -157.49966111
C       12.92196405       1.24727265       2.99185571    -154.19434983
C        5.94755757       1.72801550       5.85359438    -154.48390153
C        2.32264795       0.63454342       5.99760040    -155.07096149
C       12.21001225       2.18844926       1.33494753    -155.78243058
C        4.40497409      12.35913451      -0.28336064    -157.35190019
C       10.59703434       6.44744736       2.83876517    -157.93339426
C       13.88250019      12.65205020       6.29428596    -158.15934319
C       12.69014568      12.08905060      11.35095068    -153.36503656
C        7.98005345       3.63192496       0.83975589    -155.69903628
C        7.77177549       3.14432266       6.33085081    -157.00171245
C        6.17206296       7.13866489       3.48635998    -157.41427547
C        1.73744016      13.72994820       6.11052629    -155.87022676
C        8.60205286       7.08618440       9.89565517    -155.41744422
C       10.80366830       7.81382507       3.27249808    -156.21953479
C       12.44090941       4.96702414       1.58324417    -156.54817074
C        9.31304093       5.29069399       9.25635123    -156.16197699
200
Lattice="14.172425494135853 0.0 0.0 0.0 14.172425494135853 0.0 0.0 0.0 14.172425494135853" Properties=species:S:1:pos:R:3:gap17_energy:R:1 anneal_T=2600 density=1.4 run_id=161 time=2 pbc="T T T"
C        9.55068416      14.15873493      13.84249143    -156.58183909
C        2.35989309      13.39118471       2.53244237    -155.52272850
C        4.56594449       2.43024501      10.22852293    -156.23930803
C        5.59241076       4.58246954      12.17371667    -153.64366766
C        9.20296370       3.42075582      10.40790332    -155.68801392
C        8.56718869       1.90195367      14.07218393    -152.78020204
C       10.99425908       6.66204622       8.53252294    -154.13369442
C        8.77044962       8.50151367       0.26043816    -153.67256570
C        1.30904884       9.22124613       4.88157858    -156.69540655
C        9.81851466       1.17963900       2.29471410    -154.52226918
C       12.19805073       7.46984613       4.45120454    -155.26100454
C       13.73463927       2.78972858       8.36640794    -156.41842004
C       10.91085435       6.61265532       2.16910389    -156.31688167
C        4.36030260       6.55562548       7.93950614    -155.51494419