200
Lattice="13.55543733162543 0.0 0.0 0.0 13.55543733162543 0.0 0.0 0.0 13.55543733162543" Properties=species:S:1:pos:R:3:gap17_energy:R:1 anneal_T=3700 density=1.6 run_id=449 time=0 pbc="T T T"
C        8.49639901       2.43288923       5.08841295    -147.94303124
C        5.64700542      12.69922169      12.01880651    -152.89152075
C       12.16832298      13.25469640       4.42353231    -153.52103001
C       12.32154009       7.72062133      11.20508716    -155.52238222
C       10.89683652       2.41507738       2.64961356    -152.84632946
C       12.21740722       5.83667310       3.64946262    -155.14806176
C        1.99461483       5.31943827       2.88328219    -156.64390755
C        9.50172446      11.73170235       2.87739913    -153.23360905
C        2.64829868       6.09455174       2.04117775    -156.49942297
C        0.17474721       1.03524230      11.15521671    -154.86381892
C        3.15437738       7.22887073       9.97594788    -157.39946102
C        8.51459041       5.86900281       2.08722557    -153.26074136
C       10.57976128       1.12317643      12.37371497    -154.01514772
C        7.71206785      12.23584262       1.18199076    -154.49447607
C        5.69287702       5.88716710       6.32916924    -151.93752245
C       12.49374837       8.08413749       3.73526853    -154.85280826
C        8.85149725      10.44884287      10.65645795    -153.55661069
C       11.03108957       7.98176683       3.27218768    -155.35786068
C        9.78575154      12.06128925       0.74742377    -153.46903043
C       10.88451463       3.37941119       4.96568203    -153.95515933
C       11.79844932       3.17559164      11.12959693    -152.63171053
C       10.27209352       0.17039727       0.76360083    -154.88137198
C        2.17393971       7.86703361       5.96033935    -155.68316783
C       12.36747947       5.93522112      11.11581105    -154.75978310
C        3.81105698       5.89418882      12.27002943    -153.31308667
C       12.42631007       2.73939122       5.71173263    -155.69449896
C        5.42987442      10.61038302       4.09122076    -153.60465882
C       11.49545819       4.00632306       0.11078886    -153.59120321
C        1.91154711      10.48014238       7.75399482    -153.18928133
C        6.86829610      13.22258357       3.50043414    -153.13749862
C        2.84405275       5.27153336       6.48290146    -154.52255883
C        5.53228575       3.23386646       7.05643201    -155.70241976
C        4.89044935       7.32062749       7.78481988    -152.43417035
C        4.07963086      13.24325561       8.22061364    -151.77163015
C        7.03782040       2.05729517       0.23568297    -155.59103661
C        0.35114005       2.77481158       9.32324002    -155.47035895
C        4.69092687       7.34105553      10.03393804    -150.79001675
C       11.28151272      10.95203426       1.73159868    -151.21198973
C        0.99948848      13.36693542       9.44347675    -155.94900172
C       12.33737284       4.02497534       6.41303674    -154.42744703
C        6.67076627       3.88222303      10.03357205    -152.72436768
C        7.60434279       1.03785037       1.24232330    -153.32067823
C        4.06335078      10.38139101       5.20503038    -154.21867621
C        1.24033200       0.41021058      13.29036075    -151.75789383
C        7.14763300      12.70195989      10.69927957    -153.49494996
C        2.06160580       5.43135196       1.17423976    -153.02092441
C        0.92502847      11.56387248      11.29664059    -152.81781973
C       10.44483046       6.26669223       1.23233972    -153.35741465
C        4.79791993       9.98699556       9.30481818    -156.58242673
C        9.67443429       3.87625864      11.43862024    -155.83689776
C        5.84884588      10.36867601       0.04636678    -155.83801315
C        0.57009154       6.14181955       5.21095411    -131.06583178
C       10.14358798       5.13168191      12.34038215    -154.28466844
C       10.08638403       2.52562197       6.87953356    -144.59084410
C        2.31899644       3.08750841       1.30216649    -153.55979617
C       11.38841090       4.66753018      11.14946920    -156.24756108
C        6.49234960       1.91890771       2.67420312    -150.46961700
C        2.32631638       6.22141707       5.56461547    -152.80952787
C        1.69325034      11.97290780      12.02066361    -156.18491318
C        3.00071294       1.21955423      10.28395453    -151.13564484
C       11.96941050      13.12395421       0.50995555    -154.80159936
C       10.84428209       5.84833077      10.00465830    -149.68920578
C        0.72798934       0.00381278       1.91025934    -155.17763635
C        5.25225753       7.67708127       4.32834603    -152.62404620
C       12.92440461      11.35654206      13.34227808    -155.75393273
C       10.59151385       4.31447882       7.86208588    -153.29680602
C        0.81658361       7.23381847       2.25500122    -152.12687010
C        1.37300314      13.03538298       8.10200356    -154.43763018
C       11.44753972       1.94249417       1.87624875    -155.60007157
C       11.59549731      10.76589099      13.54771073    -156.34747373
C       10.83065887       8.78058875       7.47441392    -152.71525828
C        1.80294094      12.19974449       0.98003101    -153.07238299
C        3.32170570      11.04045638       3.25376584    -153.43262342
C        4.75386476       7.87858284       0.48650465    -155.64830912
C        8.22992622       5.79151993       3.64943550    -157.51462865
C       11.51001673      10.01790196       4.22114963    -151.53939656
C        3.09343213       6.98553708       5.56971231    -149.96510325
C        8.45475671       9.52891667       5.48303885    -157.18107805
C       11.75415015       6.98201266       4.37387874    -157.28032946
C        7.08811107      10.61070835       1.28541061    -153.81548392
C       12.45975133      13.12078223       8.75524009    -152.01591581
C        3.20214674      10.55757103      12.31343394    -154.19198653
C       12.94576798       1.31059661       1.30965993    -154.45153632
C        5.59358344      13.49320432       4.99024448    -123.82099264
C        2.81149259       5.58115310      12.57528432    -155.00296890
C        9.99190263      11.61413604      13.12909172    -154.43778049
C       10.98731906      13.21751383       9.97886230    -151.43971630
C        1.20442501       3.33501714       7.49947793    -153.48783842
C        8.82444059      11.86538607       8.80820118    -151.75505116
C        4.93886937      13.31955917      12.36152863    -152.01128336
C       11.41637577      10.55820814      10.13336718    -149.94003328
C        4.60097298       2.79583606       6.11987329    -154.10102485
C        8.51154043       9.25075910       3.14312636    -152.36451822
C        3.78877185       0.25095046       4.31142884    -152.56150848
C        0.68216654       9.25666927       6.70758283    -152.64309953
C        8.16885898       4.55603671       5.28134749    -154.16157800
C        8.33588908       4.90560433      11.87713864    -155.93265239
C       12.50456561      10.12822967      12.82985544    -154.08749535
C        3.55781430       5.69741809       9.41475278    -154.92904017
C        0.62725075      10.20514322       1.51726010    -152.41131951
C        8.30854776       2.92012587       9.55064604    -155.25973677
C        9.34862935       5.12330465       3.42596056    -154.98380870
C        6.50862968       4.41005820       1.53585816    -155.08333229
C        2.70163933       4.41188819       3.44106132    -152.95292548
C       13.47970310      12.06161458       6.87522293    -153.15908564
C       10.04916080       3.90575527       2.70917615    -156.41560757
C        5.97283746       7.33312560       2.46982779    -151.88523089
C        7.69917663       9.52691047       4.58058561    -155.44675792
C       13.08141724       5.60490223       9.96715040    -154.77896896
C       13.34784936       0.06486711      10.70640974    -154.55074491
C        5.14270248       1.68510353       7.62277818    -154.31213553
C        3.25135298       7.86288565       1.92610565    -153.83686075
C       10.45724724      11.09204837       2.31789845    -152.37874114
C        7.65034994       4.00540129       1.99881701    -155.68097169
C        9.63121956       0.70249970       2.64282228    -153.40494143
C        3.51070916       9.55412978      12.13431239    -153.50854074
C       11.49867083       1.37175604       8.38841640    -152.17689321
C        6.53632344       0.11649462       9.01188518    -152.46465282
C        8.54438526      10.44382736       6.32937258    -153.57330854
C        9.65098338       1.18730042      10.08105674    -154.40371090
C        0.22763510       7.34344129       8.98335098    -153.59524544
C        5.86790482       9.34921224       9.09297381    -153.19587411
C        1.03111603       4.26569280      10.51061500    -153.98383748
C        8.87416194       3.31088846      10.53134126    -156.21730266
C       12.26794189       1.15439460       0.31284729    -155.05752730
C        1.97548810       0.26823228       2.31533647    -152.48673566
C       11.71432428       9.11500139       2.37956214    -155.15619200
C        3.81581494       9.73186868      10.04434862    -153.73502350
C        7.57180974       2.69414317       8.23315242    -155.80753451
C        9.97270813       7.39947947      13.16466118    -153.55672544
C        5.74619055       1.09063118       6.93630373    -153.34025153
C        6.50250262       0.80903052      12.45643025    -154.14184084
C        3.13092647       9.99190263       3.00257004    -154.13955742
C        8.35551735       1.51373569      10.33157478    -156.78391452
C        4.35080739      10.65239132      12.85917585    -155.39228775
C        2.15646675       4.23828370       6.55550438    -155.71112394
C        3.70123083      10.08176163       7.81382852    -153.12774181
C        4.97750237       5.02750837       1.31674807    -152.20552526
C        9.39587005      11.71218252       4.46807548    -153.64054954
C       11.28580979       5.94025019      11.20835402    -155.28868023
C       13.44466230       3.81813292       2.44846442    -152.27244657
C        2.67601955       2.39715709       2.98502930    -154.36472317
C        8.54635080       8.86026761      11.09062505    -154.83337388
C        4.97022310       9.21102811       1.02791017    -154.61468764
C        8.90563766      12.02889176      11.66525359    -154.38855066
C        7.04001638       2.66055280       2.09289175    -157.10870129
C       10.92138542       9.25372774       0.56646546    -153.87101502
C       11.31541487       0.16818638       8.88960158    -156.95365968
C        1.15686169      13.14919443       0.73228099    -158.38910804
C        0.60115925       5.81132443       4.75195344    -132.30056395
C       12.03188751       0.30554227       9.91402665    -156.83666294
C        7.58894381       1.40870816      12.63717845    -155.83217895
C        2.60543639       9.84582924       4.05182866    -153.89807798
C        7.99135053       6.58387591       4.29528432    -150.22981787
C        7.30624517       4.13875968       8.03830656    -155.09820223
C        1.36417855       2.79857426       5.09871509    -153.80339972
C        2.49181471      12.58419025      13.09490490    -155.05731033
C        6.88496929       0.50769722       9.98467759    -156.08681699
C        3.56337203       9.44506274       8.93299254    -155.60076587
C       13.11500762       0.85147666       5.72691472    -153.02676204
C       11.29756236       2.82468203       0.74637458    -157.53733863
C        7.39104798       3.31259644       6.88829037    -155.32825944
C       10.77547469      10.63551480       3.63301987    -155.46879783
C        7.78620254       7.82979682       9.97212525    -153.38175690
C        3.20934468       7.65369814      13.38543859    -154.05456992
C        8.71643087       3.05314537       4.54097662    -149.78919037
C        0.58261270      10.94114924      12.99639754    -155.43662814
C       11.45617453      12.39956519       3.48521138    -156.82928102
C        2.37548195       5.61003974      10.07179838    -155.45737789
C        5.08252989       9.46521967      11.29411928    -154.34975162
C        0.26873790       4.24122523       9.34023854    -158.16464611
C       12.23173532       8.91130384       6.23768360    -152.69735846
C        1.35980014       8.22665936       5.05894343    -153.29020105
C        8.30097027       3.01397016      11.61829756    -153.12390300
C        4.88640983       3.49678772       3.61656357    -152.24099553
C        1.39166897       3.39729081      13.39636427    -152.41755050
C       11.04074104       6.05267899       5.74694966    -152.97024243
C        0.15326862       2.13072497      10.36661559    -156.14701217
C       13.11525162       4.16394568       8.39900319    -152.11049492
C        5.67902336       0.32228594       5.29460471    -124.49977380
C        0.70217979       4.41938435       5.45023469    -155.78443172
C       10.04819836      11.81723716       1.70883910    -152.42405906
C        8.08313439       6.41103053      11.75226595    -153.01525985
C        0.52184096      12.00495285       4.88556939    -152.93371169
C        5.12808972       7.88400502       9.30586195    -155.15194694
C        8.06467189       2.45387304       0.58802945    -153.07866762
C        0.21174813       5.12533797      12.15784463    -155.39244151
C        5.84597213       7.72795482       8.38169290    -153.04595390
C       11.49918593      12.17981800       6.67746265    -152.82112808
C       10.99659098       7.90332152      11.68286211    -154.83860603
C       10.61337877       4.14658117       1.58854815    -156.10171607
C        1.94639814       7.51775066      10.16211826    -153.50369407
C       12.52259434       7.04535722      12.89755129    -152.91707760
C       10.54111473       1.95748648       6.65483863    -144.74057753
C        2.88188598       6.43830407       6.46090098    -150.61227540
C        1.22782169       6.35568368      12.63559247    -154.58261624
C       12.12700601      11.64775353       2.98310443    -153.64627760
C        9.23931831       1.09533491      12.44347125    -155.65186974
C       12.93298520       5.04709598       3.44623950    -155.12826136
C        3.56509357       3.48847824       8.55152897    -152.65601842
200
Lattice="13.55543733162543 0.0 0.0 0.0 13.55543733162543 0.0 0.0 0.0 13.55543733162543" Properties=species:S:1:pos:R:3:gap17_energy:R:1 anneal_T=3700 density=1.6 run_id=449 time=1 pbc="T T T"
C       11.28330204       9.53778193       3.95875703    -154.74517675
C        3.81784826       1.94631680       0.15078526    -152.96089872
C       10.29391778       2.50499060       0.78366288    -156.24979999
C        6.87560248       6.26212405       2.77603157    -153.83729910
C        3.33841955       5.83876063       8.88373208    -155.59621780
C       11.04627166       3.40660340       1.72991780    -156.96884487
C        3.38438604       5.16668205      13.05265261    -157.07279408
C       13.20906880       2.28985225       1.39054387    -154.73267344
C       12.26432259       4.16033994       5.67037499    -154.95629612
C        0.96138008       5.14445113      10.83519995    -155.44917754
C        0.25895359      10.86167371       0.82223081    -156.11136389
C        2.66997382       4.60710004      12.05730395    -156.81385148
C        0.17854544       7.33511825       1.63334887    -156.65856684
C        2.22736169       5.82067768      10.90845353    -156.62939838
C       11.62217441      13.53575484       3.44438240    -155.26581073
C        8.88194276       6.87264739       5.96136956    -155.75331600
C       10.62614799       6.69149253       5.30296842    -155.10008915
C        9.44401897       7.99610848       9.01661603    -156.76957627
C        0.44023452       3.11434817       0.30640304    -157.09907538
C        2.62926685      13.58417486      12.56486019    -157.04116794
C       10.34488622      11.14622945      13.20192508    -155.55687554
C        1.52959555       4.91654356       6.79803827    -154.30710475
C        5.45520953       4.82653546      12.66419444    -155.49912299
C        9.26256588       3.15672247       3.62725881    -156.54205171
C        9.93110650       7.91038390       2.18425539    -150.93607648
C        1.32950645      11.90198575       0.43131233    -156.85016863
C        7.69843108       1.37759843       5.59535920    -156.35238610
C        7.40923938       2.68377326       5.75211428    -157.16805204
C       12.97381418       1.10749550       5.75135517    -155.33068723
C        0.08813854       4.89648152       4.80082080    -155.55909813
C        7.66439338       0.68142506       1.79570234    -155.24642452
C        7.53971046      10.72466891       9.59373877    -156.86428596
C        5.40014735       1.66113751      11.92459622    -155.69313828
C       11.10817934      12.26519014      12.18960502    -155.99730585
C       11.90968524      12.95685633       4.63398047    -156.28096630
C        8.28764527      13.40947238      12.98834561    -154.94250901
C        9.39601916       0.26010715       8.30083472    -154.48771447
C        1.26085223       1.16047150       2.32523194    -155.17765385
C        2.39028449      12.31735146      13.36399389    -155.47302806
C        5.96732040       9.23885742      10.72252715    -155.80997647
C        8.65560762       3.12874405       9.83775020    -154.91208288
C        2.87853778       8.12580691       2.82656624    -155.06395246
C        6.56534563       2.09783948      12.29631342    -156.41188587
C        1.05220287       6.91251393       2.23159098    -153.36958033
C        9.98757845       1.92412655       7.47765367    -154.48382369
C        3.50326722       6.18560361      10.09303975    -155.66011618
C        3.70232882       9.83802131       9.48560705    -156.39828835
C        8.11469145      11.79440980       4.13236152    -157.35720855
C       10.74654738       3.92486844      11.15395605    -156.22676848
C        8.30345091       0.89704598      10.75970971    -156.11933925
C        7.12304343      11.03923639       2.89357076    -156.04823253
C       11.11370996       7.26880505      13.56953499    -155.93718941
C        9.33126484      11.74634222       9.69465900    -156.58893778
C        1.20543489       3.06183441       9.83825175    -155.10304656
C        1.14454522       7.51264026      13.13140970    -156.08023527
C        7.63198233       5.54017501       2.40515480    -155.41723273
C       12.75286055      11.08776485       1.52424115    -155.49988430
C        9.04384890       1.33043364       9.69391345    -155.87845582
C        5.49537429       0.70662868      12.81624578    -156.73000336
C        7.53779915       0.82975814      11.82943705    -156.92639857
C        0.02108047      12.37451474      12.80740763    -154.67641900
C        7.55337435      11.52804546       8.60458495    -154.84701128
C        9.88115471      10.66690919       0.94711841    -155.34035745
C        3.13053336       5.24854334       5.21454630    -155.48434652
C       13.42706734      12.56002090       8.89970038    -156.51898315
C       13.58756372      10.10720518       5.52453204    -155.20214557
C        4.14732672       1.22012491      12.63589068    -157.48857688
C        9.41167569       5.80400449      12.60593317    -155.93718097
C        0.15920726       4.91354781      13.19573025    -156.42938846
C        4.19417431      11.19920410       4.29940517    -154.58329228
C        8.03734412       3.92244201      12.33596308    -157.35437970
C        6.02754721       9.53867659       3.05816088    -155.14201417
C        4.37612894      13.12947127      10.12684701    -154.82181951
C        2.46898736       3.82839439       3.78184502    -154.63192809
C        9.64275523       4.36958167       8.42347076    -154.40006419
C        9.87738630      13.00156216       9.93118783    -156.15613562
C       12.04845225      11.15612492      10.35564924    -155.62435603
C        3.84087895       6.98956304       3.49551351    -155.19526768
C        0.13866535       2.70120555       5.37699466    -156.30535416
C        7.07813427       1.41666520       3.34504816    -154.53050270
C        5.04424934       6.17953077       3.75194172    -155.76754856
C       11.44591306       9.18182970      11.81920270    -152.94719921
C       12.92173419       9.96757062      10.32716926    -157.64066544
C        4.30940908       4.45216139      12.62038326    -155.60254776
C       10.45825034      11.87320756       7.21901593    -155.28422049
C        0.74724619       6.18243164      13.42999531    -155.60601146
C        5.18166081       7.48325207      12.01506521    -153.90213612
C        4.87976766       2.54840866       9.05638768    -154.81073451
C        0.50976578       4.12925732       1.26457590    -156.77390026
C        1.00486186       2.78089797      12.47550275    -155.50485569
C        7.94461138       8.54418193       7.98754145    -153.57555716
C       12.75494809       7.79605734       0.67028249    -156.71863194
C       12.97081843       8.77982965      10.98676329    -155.40787816
C        8.88581961       3.24414148       6.67486001    -155.05638102
C        5.35769172      11.56425203       3.22769874    -155.40355848
C        3.68753984       9.14588068       3.58256653    -155.91174391
C       10.38052347       6.66819073      12.67482190    -156.48820222
C        8.10447065       8.77225216       9.44911581    -157.19710473
C        3.10698757      10.96889722       2.95844709    -152.67462415
C        3.34766436      10.32902636       4.12193738    -158.24873369
C        3.05707645       5.42622801       0.82785631    -153.94761629
C        2.57947773       4.09124787       6.98328687    -154.25157509
C        9.85958801       9.28590835       9.47510158    -157.11323506
C       11.78265724       8.44224504       3.26744328    -156.05972335
C        7.64189135       0.72935573       0.29582980    -156.89160092
C        9.81970791       3.67696660       0.38177940    -155.87495387
C       11.81546140      12.95821187      11.17274389    -155.99804050
C        5.75576069       5.46004882       0.50006957    -155.81939376
C       11.60434901       1.32199267       4.12866088    -157.02671778
C       13.17211667       4.61982860      11.64733331    -156.95538854
C       12.86705156       9.81616994       9.01393205    -156.63940370
C       12.26920255       9.74919253       6.37703349    -155.75008882
C       12.67754654      10.16815043       4.39158214    -155.43550877
C        9.25919058       3.57100374      11.24530615    -157.43869542
C        6.19064623       0.12140643       0.51200920    -154.39994583
C       13.25323241       5.72668428       7.50098258    -156.35306882
C        9.25424284       2.90670598      12.82543637    -154.99108892
C        1.39149275      13.44269676       1.86419796    -155.15062946
C        9.62852202       5.19376581       3.47202194    -155.97441427
C       13.22040114       0.20311603       8.19420765    -157.99329522
C       13.16318364       4.81109582       3.34534638    -156.20523378
C        7.72463374       4.46418507       0.99536899    -154.33756189
C       10.81634433       1.93535045       9.11986779    -154.37596502
C        1.26993844       3.42918676       8.47374787    -154.40195435
C        3.93129371       2.64133119       1.91683373    -153.94666765
C       11.64365978      12.77153995       6.05360076    -156.15785485
C       12.75454143       4.84276132       6.61662585    -156.84364949
C        4.28856082       5.09578711       4.58099227    -156.49980812
C        9.52533804       4.70787116       7.15061519    -156.13526005
C        3.96168500       8.65834582       9.35154377    -153.96838968
C        3.43513760       3.13504732       3.17408698    -157.63249834
C        6.07195482       8.18360729      11.59448066    -157.42514893
C        1.90552849       9.00179994      12.07735244    -153.93621546
C        4.53445645       1.87996294       7.60857209    -155.46665930
C        8.48186758       4.73660869      13.15319328    -156.71920688
C        6.88724660       0.38561288       4.42693472    -156.23458544
C        7.68342521      12.69038354       4.98409031    -157.51325041
C       13.28843588       6.40311416       4.09969291    -156.11606357
C       11.43913534       7.87095113       1.06344575    -158.31293193
C       10.21735667       6.14923437       7.97376912    -155.51327125
C        7.21467819       0.10042492       2.74055699    -155.74930762
C        2.91731989       5.73557664       7.22058836    -157.20330276
C        6.46245986      10.72824754      10.75957416    -154.50565078
C        1.97910741       0.49662107      11.49041556    -155.17731368
C        2.95728132       6.72727888       6.16418602    -153.93894827
C        2.32840392       8.17916111      13.35553530    -158.14624978
C       11.82682085       1.08316484       8.07657356    -156.72626165
C        3.63708650      12.23268420       9.41568810    -157.09682716
C        4.75413587       4.82187239       1.40037156    -154.68458061
C        6.67976708       8.62049904       5.26611118    -154.07813325
C        0.21566430       4.14044056       2.61454564    -155.84452059
C       13.11790848       7.60601011       4.70800672    -154.39205546
C        8.32317408       0.41977801       6.88064510    -155.69023091
C       12.31541304       6.40625902       8.11669765    -155.30700134
C       11.40845939       4.97255463       1.57061430    -152.60124776
C        6.13226296       9.10563459       4.37298408    -157.14668607
C        9.95343230       6.30943253       9.26924871    -154.57268997
C        9.98818844      10.55934680       9.79281393    -155.77407188
C       10.13822002       0.13438427      12.53575667    -155.72673527
C        8.91913888      11.89825801       3.08317067    -153.17031121
C        5.74209681       1.37353180       8.28570685    -155.80559890
C        7.19711034       8.18225175      10.29776752    -155.00346503
C        2.20769275      10.77330582       9.65483313    -155.53398345
C        1.43564281      11.86331209       9.57847535    -154.66446864
C        1.51358658       3.26817527       5.67278786    -154.66547829
C       13.12800728       9.15630481      13.39553739    -155.31459164
C        4.57467544      12.69116976       8.64605104    -155.12506892
C        9.11037899      11.72562951       6.48075970    -157.21606047
C        3.63623251       3.66148629       4.80383010    -155.07968649
C        7.95995613      12.75822851       6.33140589    -157.80779667
C       10.12511192      13.00758078      11.24659391    -156.93164959
C       10.23533118       2.33009834       4.30591178    -154.23753117
C       11.03033047       8.39488234       2.10057768    -157.78597099
C        9.14727689       5.81774970       4.48732420    -155.53384788
C       11.38034541      10.79952203       6.42264754    -155.56175818
C        7.95263620       7.62247996       6.34624910    -155.64016332
C       11.68789118       4.63040184      11.41468134    -156.29848199
C       12.91258427      10.96274305       7.99404806    -155.12408551
C        1.75988887       3.69057626      11.83256836    -156.79918157
C        7.20051276       4.52696030       9.54026257    -152.89926073
C       12.87243307      11.67689772      11.76876291    -155.76205764
C        8.41596104      10.92393384       6.97973535    -152.98481358
C       12.17561581      12.66248645       9.65598534    -156.01868052
C       11.71581538       6.83288930       4.75850072    -156.79151929
C        6.74957758       3.65882942      11.77109445    -155.11067590
C        3.49680128       8.50582004       0.14187121    -154.70955316
C       11.43975889       0.66016200       6.77881666    -155.75640681
C        9.96731307       3.91487808       2.82798956    -157.01717662
C        2.07155549       2.20645920      11.41165847    -155.12480925
C       12.29428011       8.25043560       8.42611407    -155.53701235
C        0.44025620       9.09901953      12.25353246    -157.55650627
C        6.26417092      12.08225951       2.59113540    -156.12404379
C        7.87587175       3.32833431       4.78974600    -154.04286133
C        4.02730688       7.23330336      13.49869427    -155.02553992
C       12.80727208       1.91116755       4.66250111    -157.02471554
C       11.61082851       2.31940310       0.89699040    -154.98286766
C       11.77791283      10.61268744       0.96647828    -154.66273567
C       10.75374532       8.51015778       8.49997765    -155.52771979
C       11.57344262       0.63945336      12.68016274    -153.37239658
C        0.30576458       0.96729025       7.21736216    -154.18426633
200
Lattice="13.55543733162543 0.0 0.0 0.0 13.55543733162543 0.0 0.0 0.0 13.55543733162543" Properties=species:S:1:pos:R:3:gap17_energy:R:1 anneal_T=3700 density=1.6 run_id=449 time=2 pbc="T T T"
C       13.43552593      11.36470244      11.37166993    -155.96928275
C        6.86624923      11.93003195       7.11298530    -157.57963404
C       10.54492381      12.67300547      12.35369359    -154.57097391
C        5.56807210       7.35293009       7.37510679    -156.31299522
C        8.64492594       4.32997268       3.48004676    -156.03332907
C        6.26827822       4.55081787       2.28785960    -158.13324931
C        2.06288001       8.31432238       0.54962825    -156.78215396
C       12.99727864      13.07358220      12.04941469    -156.31524544
C        1.22640650      11.89114140      10.69370829    -155.88604968
C       12.52089991       7.40965960       5.88293780    -156.53346635
C        0.09266605      11.41581999       5.74411657    -156.62318732
C       11.58480207      11.38083341       7.30063322    -156.31232334
C       10.47519464      12.15040270       7.84560246    -155.42476927
C       12.07130672       4.69606438      10.76181081    -154.88231269