200
Lattice="14.172425494135853 0.0 0.0 0.0 14.172425494135853 0.0 0.0 0.0 14.172425494135853" Properties=species:S:1:pos:R:3:gap17_energy:R:1 anneal_T=3100 density=1.4 run_id=291 time=0 pbc="T T T"
C        6.69834181       9.70265508       2.69229315    -136.67302706
C        3.26891246       0.08507126       0.25261782    -152.48074174
C       12.99383242       0.70460764       5.00527551    -154.93627947
C        9.70068511       6.49092836       6.70375567    -149.38736898
C        7.04397892       0.71871062       5.72045862    -152.81902828
C       10.18528286       9.91106060       1.04671157    -149.84891929
C       10.06623448       1.18272859       9.18227196    -153.55697624
C       13.38748571      10.60369538      10.20977281    -155.65420687
C        4.86726443       7.53785960       7.06522338    -156.47664428
C        0.34407106       8.38340068       2.55280814    -154.62525157
C       13.40500283      12.42249943      13.95640938    -154.67925561
C        1.73722757       5.28547854      12.67807078    -156.67072353
C        1.30996012      10.90640421      10.82064686    -156.22326551
C        2.63767263       2.98478367       2.63442714    -153.50466847
C        6.70935378      12.37672249       3.02562860    -152.32659731
C       14.02479134       9.51803089       2.02790402    -155.27221016
C       12.78033900      12.04113363       1.37446875    -154.20708494
C        7.13096927       8.79876613      12.46385457    -153.95489074
C       10.45034973       8.07119632       9.72866148    -154.00073989
C       12.39494823       4.67461865       1.91363175    -149.71453932
C       13.19277075       8.29704809       1.17294253    -155.92461377
C        3.97801559      13.17271677       7.19294528    -154.49485980
C        2.64117322       7.26740721       3.01154121    -155.41558292
C       11.07135707       4.92755393      11.13650771    -156.08198563
C        6.04147823      13.04393194      13.23350231    -152.69773178
C        8.48996315       3.50513845      10.27333614    -155.32255218
C       11.08622395       2.72922649      11.95893356    -157.23664971
C        5.05884728      12.94332189       9.78886594    -154.32747415
C        0.75094864      13.17695433       5.35622728    -154.07451434
C       10.35015068      12.64520492      10.41963809    -149.82155309
C       10.64411513      12.68957879       3.98204056    -150.34550604
C       10.71653623      13.23951141       0.93445604    -152.24670623
C        5.03968616      13.65207072       4.57702733    -153.53220787
C        6.71520699       6.30023837       2.11081271    -156.34221766
C        9.33958588      10.50641585       0.79320231    -152.29869227
C        5.77476735       1.38199714       2.31887809    -152.19972659
C       11.21560402      10.45152604      12.45472752    -154.18137489
C        4.06363122       7.61633232       1.73198377    -154.74067511
C        6.80280675       7.59856010      11.78807080    -156.67583735
C        3.88589483       6.16022898       0.50834648    -153.05516142
C        1.64475250       4.29542124       4.63473745    -153.81024941
C        6.17046147      13.27572196      10.67933361    -153.88071048
C        5.46263385       0.89939913       0.07433423    -152.53049274
C        9.14651493       8.45117322       4.12868265    -155.50547447
C        5.68239148       5.98065018      13.51156529    -153.91970978
C       11.44828690       8.09502017      10.73293372    -156.84328810
C        8.75249316       5.84825138       3.79055692    -154.09799257
C        1.70939293      12.51001416       8.78004435    -155.06340804
C        8.72640172       8.37064550      11.12189594    -153.84236717
C       10.59828151      11.89354199       3.14181415    -158.28152294
C        5.85107169      11.47691520      10.90186904    -152.89882921
C       11.43750168       3.58555279      10.88256619    -156.43262995
C       11.79678684       8.94638611      12.86198634    -154.33989892
C       10.80684292       0.69862263       2.29247486    -150.53185132
C        0.58654850       6.22254514       8.82249077    -155.11700583
C        6.38795152       1.96095348       5.63054875    -151.25895057
C        1.90066398       3.60665553       7.93344034    -153.48122653
C        4.67695710       7.20733030       8.35447476    -155.72602030
C        4.96988697       9.54101857       7.61111687    -153.99508235
C        2.92133372       5.87775837       2.57517223    -155.80099270
C        1.26151310       9.27692959      13.15597914    -152.71966715
C       13.33910105       9.82306401       8.18671576    -152.87912729
C        5.29369854       4.35646187       8.26881662    -152.56026642
C        7.96541334       6.74409040       0.23542950    -153.14145954
C        9.94089355       9.24494243      13.21750164    -153.05623478
C        4.55514511       2.71090155       9.13268264    -152.05313394
C        7.63394865      11.07274597       9.95856657    -152.87338971
C        2.20970789      13.85193026       8.08103198    -152.13477645
C        5.89261107       7.32136163       0.88431825    -155.33414854
C        2.92137624      14.04514294      12.39310582    -153.34117156
C        4.91017854       4.46129530      12.61075176    -154.49401044
C        1.10044207       6.82501495      13.48168982    -153.86218334
C       14.14702851       5.62812527       4.98825443    -155.16381893
C        7.04599140       2.34319797       1.91534662    -157.80886847
C        1.88187135       3.54059785       3.07312040    -154.98703327
C       12.30250150       2.16789924      10.24355987    -153.68054426
C        3.35775939      12.28610401      11.04121232    -153.48760065
C        3.66728517       3.26972029       5.35768704    -152.80719988
C        9.89206955      10.81599831       3.16113116    -155.39522047
C       10.22085565       6.30175482      11.63169226    -154.49663110
C       14.01895230       5.10616901      10.03346784    -153.08273933
C        4.04663848       8.43600872       9.94093607    -154.91334830
C        4.92114799       3.47591490       2.10324463    -155.01919095
C        7.92035919       0.31718030      13.80550140    -154.51103502
C        2.32610602       1.70552386       9.49018208    -151.56825301
C        7.42962479       7.43475521       2.00976331    -154.02357646
C       10.79832529      10.20699501       9.16288408    -152.27820804
C        8.64795735       4.41298151      13.82117610    -157.12105816
C        3.02474991       6.25011051       4.06013063    -154.69867556
C        6.37477116       3.58627558       4.53972551    -153.89994586
C        7.04522609       2.20649075       6.19822526    -149.10974765
C       12.94731852       7.58838430       0.04903716    -155.96893808
C        7.53802967       4.64951929      12.91160400    -153.37931945
C        6.43092231       9.74099149       2.14709412    -132.01731964
C        9.01644041      13.53242710      13.96759143    -155.19020072
C       13.22545237       4.98648288       4.07832802    -153.65027622
C        5.17195741       7.90386249      14.16777694    -155.01228247
C        2.57739730      11.89366954      11.77943979    -155.11199239
C        3.47835256       8.17977127       0.19059786    -154.42145234
C       10.42526454       5.03459826      10.31467710    -151.59693958
C        0.91966570       7.55081320       7.48625780    -154.06294563
C        6.01670483       6.21880362       8.81054341    -153.57070477
C        5.57262605      10.19496262       6.25841555    -154.45580091
C        8.73442331       3.27628212      11.55513282    -154.82294512
C       11.85463868       3.36902647       6.76706390    -153.23759540
C       11.08912929       3.70589085      12.89077054    -156.59407877
C        8.96853761      10.96384505       2.22266149    -156.34303549
C        0.73492530       3.51609373      11.37271953    -154.89954233
C       12.89778589       6.62675688      12.94011892    -153.74044564
C       11.86433262       6.30793400       8.12400278    -152.46129027
C        4.64685487       2.54575027      12.24199942    -153.98753147
C        3.68311576       7.71644634       6.78873354    -153.94705464
C       13.27430472      11.18968265       9.02552493    -154.95079344
C        3.13383507       7.36536701      10.21340095    -154.90280792
C        8.64709283       3.72812739       3.39354477    -153.88978586
C        6.18887145       8.32964467      10.69249979    -155.30532485
C        8.33403812      10.00688037       6.42604700    -150.50316757
C       13.04744670      10.75973378      14.13957381    -153.95091588
C        5.11613222       8.91818298       3.40801481    -155.21474225
C        4.76091455       5.33214833      10.79740409    -151.88465416
C       11.76516816      11.49572201       2.81474291    -153.09284247
C        3.66422392      11.88063091       9.00112002    -153.81440353
C       10.27916100       8.34656655       3.22261114    -154.85091349
C       12.82404676       0.73397149       7.39779352    -153.76140522
C        9.90867963       6.88017403       1.66577020    -154.10500698
C        8.83051236       1.22285073       3.15927457    -154.98146047
C        2.78342185      12.62923260      13.90657914    -155.49570398
C       12.92468515       4.40167191       7.55208872    -155.19405234
C        8.14863445       2.22291659       4.43886035    -154.82886411
C       13.52987607      13.28001621       3.02051236    -153.21208719
C       11.94512962       0.73959511       0.66065045    -151.87915061
C        0.11198328      11.84957913      11.09563444    -156.46725585
C        0.32691817       2.32416440      13.20614952    -151.98186813
C        8.52513911       0.18662959       1.60207932    -154.16237677
C        1.99269971       6.24641150      11.74315839    -155.08612627
C        2.13735766      11.49740853       9.88230475    -156.49598240
C       11.24577711       6.69461446      11.91122918    -153.38511370
C        1.05136013       5.02902850      13.44722248    -151.81147878
C        1.50212121       6.61016097       7.98614759    -157.99851763
C        9.69001328       3.67058734       8.36164601    -153.60043726
C       12.02367320      10.42883599       9.75407264    -158.35042782
C        1.29886170      13.70082386       7.60672342    -156.42322931
C       10.20744853       0.35610203       1.48368288    -154.88636922
C        2.86678406      10.31955242      12.94288255    -151.27387620
C        2.09683870      10.09883106      12.16989012    -156.70022334
C        7.37045491      11.50296412      13.54030697    -153.65270775
C        4.65786685      13.85356009      10.01410830    -151.00431955
C        0.09586370      13.59597626       7.03652422    -154.60869073
C        7.50615589      11.11414362       3.14504546    -157.48113709
C        7.14495745       6.75935410       3.69344746    -155.50344183
C       10.93368613       4.84474445       8.86522063    -154.19181270
C        0.55051795       8.01844655      10.87762002    -152.34043173
C        7.33301136       9.08975437       9.57024211    -154.06587244
C       10.31053875       4.62726858      14.10524820    -153.81156213
C       13.39591830       3.01022317      10.78722829    -155.24364962
C        6.56235738      10.87168177      13.72531381    -153.29683195
C        4.10460370       4.62201061       2.85847902    -154.93979272
C        4.51648273       5.09955049       5.04629051    -154.11043463
C       14.11142737      12.77784465      10.46208450    -153.27644211
C       12.10421510       2.08263793      12.31823289    -152.13333587
C        2.24469961       7.34593662      12.42252777    -155.47545814
C        0.45689490       6.08100512       7.23560428    -153.64515825
C       10.77988697       1.77737805       5.97214672    -152.97752203
C        3.67293996      13.71750481       5.55462707    -154.61286326
C       13.76335260       1.41504724       1.88905677    -151.40290356
C        0.69332498       1.13446581       4.59114307    -153.51914295
C        0.32143770      13.35216802       3.48515533    -155.11524070
C       12.89700641       1.98173026       5.44095004    -154.75465834
C       10.47105565       1.24726982       1.07809357    -151.80327116
C        8.55763648       6.94628839      11.16998298    -156.86008335
C        1.92162500      12.02968231       1.03339516    -151.93143260
C       10.51058254       1.45468610      13.20409452    -152.88874179
C        8.93106572       2.81440277       6.45731137    -153.12382228
C        8.22060203       3.33573544       1.01161923    -153.87281871
C        1.18437259      13.18989375      13.59366615    -152.76116973
C        5.56495877       9.19563656       4.59149738    -155.47375858
C        4.60521628       8.85803521      11.87605322    -152.84234720
C        3.54816593       0.23254541       3.63035182    -152.95369353
C       11.86861270       4.58030116       9.15815049    -152.05653351
C        8.64981393      11.77087965       4.23538684    -153.12512271
C        2.04038993       8.55847265      11.10480400    -156.04306395
C       10.16358487       4.79933600      12.55693906    -155.78923269
C        8.03560936       1.99356423       1.43582260    -155.02979051
C        6.48233987       5.62942913       3.69646619    -153.93619317
C        9.83509640       9.94915608       0.03139731    -155.31158875
C        5.75754786       1.29275905       6.18246552    -150.77421157
C       12.50260198       8.86961408       9.70238580    -154.50983334
C        8.23423590       5.91857496      11.17702668    -152.17321413
C        3.96239758       3.46967904      13.35065157    -156.10245042
C        1.36108148       3.52242880      12.51277778    -157.03326344
C        2.29339607       5.45940254       8.07855181    -152.10808926
C       12.11409328       4.41828199      11.65490669    -152.17045565
C        7.53136863       8.94241783       3.99081329    -154.58995674
C        9.07865736       0.81382886      10.35341034    -153.90973057
C        9.34227864       6.50480316       3.06284539    -156.60976860
C        0.37172288       7.60109697       5.33263020    -153.54983400
C        6.55290438       3.16365385       2.71272979    -154.47971802
C        0.54666305       8.90195556       6.35424949    -154.92486105
C        0.14347880       2.83958717       8.07420087    -153.37599590
C        8.16731371       5.66675930       0.33367417    -155.65332252
200
Lattice="14.172425494135853 0.0 0.0 0.0 14.172425494135853 0.0 0.0 0.0 14.172425494135853" Properties=species:S:1:pos:R:3:gap17_energy:R:1 anneal_T=3100 density=1.4 run_id=291 time=1 pbc="T T T"
C        3.43095997      10.09472106       2.74763648    -155.79019473
C        5.14563921       4.54359458       0.38584003    -157.56430706
C        4.34037617       6.35053631       4.12828582    -157.70275637
C        0.98611595       5.77045894      10.29761350    -154.24719414
C       13.80955471       5.23346573       4.39163783    -152.85610409
C        7.56818859      11.13934220       3.43522587    -155.31191692
C        6.30534045       6.05703955       4.27766319    -154.20941693
C       10.29490657       6.56279673       8.03750846    -155.54149651
C        0.76262388      11.51319661       5.41803323    -154.78869394
C        5.39504556      11.37636184       0.93231884    -156.07466146
C        0.90775519       9.64416548      11.47192651    -157.40923837
C       13.33455170       3.99869316       2.38585697    -155.73438835
C        0.89062781      11.59388023       8.40097449    -154.61469896
C       10.94791525       7.45495091      10.12230060    -155.48498829
C        8.62774747       2.77124774      11.79308784    -157.62218599
C       13.02634396      13.23785324      12.01939313    -158.21373193
C        1.71406983      12.25931812       5.73344056    -157.33974544
C       10.35149706       8.74700843       9.88015054    -155.40854203
C        6.50711327       8.59360610       1.99853875    -155.73613330
C        0.05252995       8.90983543      10.28563780    -155.37104600
C        8.73584056      12.24153173       0.74913599    -155.35259803
C       14.47954195       6.23477594       1.85264781    -156.51249283
C       13.01582802       9.20588322       9.31036234    -155.97607998
C        2.22427715       0.03918874      13.54182342    -155.12559685
C        6.56877749       5.27911512       8.79251609    -154.56249222
C        2.86576364      13.96577736       0.27551337    -156.35934857
C        9.99415353       1.96767121       5.10530449    -155.78039551
C        1.97104425      14.11719555       7.62527512    -157.22259577
C        1.79412986       5.34667507      11.14177985    -157.20339175
C        9.74556918       6.50293240       4.20443426    -156.68200456
C        5.51287510       5.14674466      13.05175512    -155.60409973
C        9.60976900       2.62008465       3.29752658    -155.53781924
C        7.59948131       5.46039461       6.52617518    -156.08213757
C        8.86526315       9.66596267       1.71844911    -155.31660500
C        3.68775015      12.87641387       8.82522604    -156.55548955
C       12.21108936      11.39406320      12.53352621    -153.66127103
C        2.44743616      12.93646244      11.29260281    -156.53135222
C        9.21427330       3.28436040      13.08174397    -153.48039843
C        1.26117155       2.16785672       8.66235653    -156.54469502
C        6.39801394       2.07421951       2.54970438    -155.78155046
C       10.42384730      12.08723653       1.92416186    -155.34190045
C        7.75641258       2.33533227      10.58887102    -154.84543004
C        9.51301385       5.33844089       6.97528517    -154.97849538
C       10.15913473       5.82781474      10.44563031    -156.08926381
C        7.35889021       3.11648802       4.78530530    -156.11174113
C        4.25745331       0.30797389       9.75292467    -155.53535353
C        6.66050143       1.44193091      11.34317002    -154.86882000
C        9.91419270       0.18622992       8.40161225    -155.89993431
C       10.45832881       4.52512791       7.81785004    -156.39308846
C       11.75985350      10.63228116       0.20693158    -151.71969012
C        5.48783243       6.53601084       3.39569898    -159.11426025
C       11.64261920      12.60474265      13.77050968    -154.68558180
C        1.58491652      12.88660385       7.11994312    -156.01581219
C       11.95548966      10.36274997       8.04337585    -154.60296132
C        7.24230784       8.42872410       5.34586724    -153.21841455
C        2.64670046       1.35822148      13.21757250    -154.84902905
C        3.77855288       1.19837211      12.42363322    -156.67429941
C        0.97074170       6.15596308       7.65481046    -157.25718067
C        5.48613174       0.70186386       2.75326293    -154.45244567
C        4.27942057       3.67747514       6.63781138    -155.49804762
C        8.56924370      12.63505747       1.98262312    -158.38659463
C        4.84097458       1.87742121       7.93169713    -153.87878376
C        7.67890358       1.94714954       1.49881903    -156.17527142
C       12.46121850       6.37835678       8.92243471    -155.58856058
C        8.23059359       4.56727670      11.57792208    -155.23915074
C        7.37093678       4.89487232       5.23340904    -155.78757660
C       10.29380112      14.18929068       3.51175697    -155.54803533
C        6.37964647       0.34637691      12.33951988    -155.86286217
C        2.38917332       9.01332248       2.49577830    -156.07910426
C        4.99826016      13.24552052       1.55736532    -154.73867830
C        9.50483636       2.89011187       6.44690881    -154.28507913
C        0.32884704       0.80850711       8.21224030    -155.94373738
C        9.72803789       0.93798639       1.27664925    -152.92777876
C        4.40833295       3.38661445      14.13129712    -157.09350784
C        4.98482470       1.80548197       3.11946423    -156.44410306
C       13.02513931       7.24450457      12.16797684    -157.20840728
C        6.26612535      10.08049194       3.62611427    -154.47290374
C        1.81360277       3.93993429       6.15624653    -155.93801229
C       10.42183481       2.83527875      10.07221525    -156.00134524
C       11.58325091       9.72496248       6.44234528    -155.68402604
C        8.16620826       5.11849902       9.04736464    -156.16107959
C        4.84020927       5.33615913       4.95421226    -157.26240038
C        9.18893300       5.37976768       4.50608017    -154.68176231
C        5.24419426      12.56673220       4.49244630    -155.26472727
C        1.73649061      10.56720138      11.73167872    -155.82130411
C        4.44689612      10.40127062      11.07118700    -155.16087805
C       10.90402324       7.48978674       7.22371362    -156.22634086
C        4.61960130      10.51435240       2.67100617    -156.57699403
C       13.27828717      13.72264940       5.29636296    -155.51287406
C        7.18254272      13.27865565       2.41299716    -153.62357950
C       11.86198000       1.79133789       1.80971953    -156.71679568
C       13.43166116      12.71127677      10.90745297    -152.14543022
C        3.11657306       7.15547339       4.23616633    -155.05528748
C        6.39540621       5.48906543      11.50000208    -155.69508681
C        2.75477938       0.96643470      11.28672125    -156.79401750
C        3.99218802      12.85399310      12.12599811    -154.11655863
C       11.13443854       5.20116678      11.46754723    -156.93824364
C        3.63699869       5.69652139      11.24584797    -155.68268373
C       11.65579955      10.93730010      10.64672286    -154.49718881
C        4.31758691       5.51406559       1.04032973    -153.42170501
C       14.19694379       6.94719543       0.47759515    -155.43647674
C        6.01255231       4.91255950      10.44058493    -154.51091736
C        0.78989021       6.41426971       2.98733471    -155.18838285
C        6.37528137      10.27441324      11.97776872    -154.05054555
C       10.64617013      10.37125342      10.48836018    -155.83005255
C        2.28554454      10.00971485       9.72432472    -154.50260061
C        4.36893361       6.05542390      12.37431318    -156.90889308
C       11.29688288       8.54621350       6.37794578    -156.20318446
C       12.11390904       6.14303783      12.44317700    -154.43688021
C        3.45858203       3.12295065       7.54602292    -156.71755163
C        4.94461753       1.88501763      13.94748076    -154.85854853
C       10.08631681      12.67764560       0.58991446    -155.83533152
C        7.20799640      14.07608135       4.76878025    -156.59880879
C        3.93700060       3.03345178      10.08624595    -154.12895066
C        1.73909833       5.12248147       7.60862252    -155.18864741
C        0.62853857       0.18378801       6.91235960    -155.95499964
C       11.90967021      13.51386123      12.50444439    -157.21135130
C        1.12244476       4.35225266       4.86019239    -155.85273206
C        9.81723914       4.90306398      12.24253797    -155.11554029
C       12.83386825       5.32132060       2.53429895    -155.07782722
C       10.85790617       3.63463190       8.84112751    -155.97283792
C        8.24653757       3.08587558       2.25144569    -155.60229645
C       12.72875137       9.63875161      12.23993024    -154.08787162
C        1.46031255      13.30501636       3.97217656    -156.23149201
C        3.52734664      10.38888392       9.99406849    -158.05286756
C        2.82755478      12.91343225       4.49937661    -156.16656492
C        3.89237163      12.95835884       4.62325778    -155.21370958
C        4.92595245       0.15219059      12.78493087    -156.20806483
C        6.81791456      11.12796174      10.37425798    -156.03480799
C        4.54742113       5.46945079       6.19424280    -153.81117457
C        3.48755047      10.11249328      14.02562751    -153.31420042
C        2.12008147      11.24248911       8.70223774    -157.19336803
C       13.81129792       5.02041166      10.97443185    -155.29894909
C        7.86911170       1.90494406      13.96529550    -155.62628697
C        3.41870082      11.35925572       8.77984594    -156.36114114
C        5.67220151       9.62324698      11.05692954    -156.24214725
C       13.63768571       6.55281934       8.32387649    -156.48400037
C       13.35307506       8.39242852      11.70040018    -156.79748224
C        8.82536777      11.07426242       4.17722321    -155.40436813
C       10.87309901       0.72441786       4.62066423    -157.08678558
C        9.85067189      14.30181974       9.61345383    -154.29040760
C        8.15780401       1.49657979       5.78451798    -155.15957713
C       14.01540919       1.47988467       7.31034966    -153.26227754
C        3.71381324      13.85999437       1.44327730    -156.14357376
C       13.60381361       7.00340326      13.55851854    -156.88797724
C       12.59618250       0.62795892       1.92267376    -156.66348556
C        3.77944574       6.89339690      13.79353987    -156.49909019
C        5.93715501      10.56997918       2.15127498    -156.44396760
C        4.85643670      13.12481397       9.71001057    -157.33610578
C        8.37516650       9.02115983       4.56517918    -157.15419136
C        8.81727531       2.02531047       7.08351999    -157.01222889
C        8.85609359       9.99549991       3.11640299    -156.64992330
C       12.46185625       0.44547760       4.81690980    -155.46913307
C       -0.00025982      11.33493584       6.81720594    -156.07539582
C        3.39521711       2.86779030       2.73577416    -154.40056350
C        2.58727548      14.14495933       8.86060042    -156.15365684
C       12.86645066      11.10590945       6.80561289    -157.47036562
C        6.18694400       5.30941576       2.97931311    -156.21758864
C        2.08844862      -0.24314213      10.56535896    -155.96361863
C        7.21253158      12.18509713       9.85319458    -156.26555567
C        5.64221266       2.52585219       6.87558216    -157.51495603
C        2.42083452       8.30084630       3.61992092    -156.62885558
C        2.79230796       4.51877866      10.56418265    -155.33730406
C       12.57257124      12.13754864       5.81685946    -157.16288645
C        5.97026179       4.12502616       2.13982366    -154.47329967
C        7.40799767       5.11365205       7.67273858    -157.37705879
C        6.69457194       2.07780513      13.45907063    -155.65841522
C        7.90410342       2.48998178       3.68539753    -156.84671101
C        2.28340451       6.65039649       7.48447208    -154.62766418
C        6.21278034      13.28435297       9.69809156    -155.41847428
C        6.14991146      13.37967670       4.60542887    -156.80632990
C       12.93191309       2.60560043       1.79475345    -156.24001944
C        4.33382851       3.00798393      12.94543358    -153.86878201
C        4.78626902      10.42951627       0.10025035    -156.94666103
C        0.69451121       0.06750128       4.16203037    -154.59657509
C        8.21415357       8.43355689       1.68773746    -154.92699783
C        7.96022623       0.64422744       4.21167637    -154.38724169
C        9.80862231       2.37332855      11.04895047    -155.91751633
C        9.42810685       7.82273953       5.00149147    -154.71201453
C        9.75703468      12.40849707       2.95112416    -156.37024423
C        1.97443146       2.73526395       7.32962415    -156.16479955
C       13.24890773      13.24744797       3.53940737    -155.32601974
C       12.64374516       5.25499365      10.22493730    -155.85627840
C        3.80621745       1.54601321      10.46412533    -157.23930136
C       10.51096520      11.10599448       4.03977902    -154.95114494
C        1.76151911      11.71811571      10.72569161    -156.00990640
C        0.86822830       5.35821142       4.16886148    -157.46760182
C       10.05848217       1.35896270       2.52884257    -157.58420522
C        3.56124708       7.80319575       0.47621617    -153.50964152
C        5.78647378       7.29702758       2.33394338    -154.58182410
C       13.10073502      13.72871520       2.34553642    -156.56928778
C        3.45564834       2.51584646       4.02868202    -154.36333092
C       13.16706197       8.06092131       8.39935883    -155.31211128
C        1.52131067       1.83616527      10.15482632    -154.17277799
C        0.47751153       9.82458046      12.74288128    -153.53811979
C       12.69116610       0.70721112      12.69093934    -153.03763530
C        9.33658133       1.22665461       8.19280990    -156.34342213
C       11.83775933      11.71166726       4.77525705    -154.92471647
C        6.70756806       2.30364273       5.96870282    -156.75948330
C        9.19060535       4.76169403       9.92602668    -156.33225261
200
Lattice="14.172425494135853 0.0 0.0 0.0 14.172425494135853 0.0 0.0 0.0 14.172425494135853" Properties=species:S:1:pos:R:3:gap17_energy:R:1 anneal_T=3100 density=1.4 run_id=291 time=2 pbc="T T T"
C        9.55091092       8.02480997       1.81462319    -153.96582082
C        8.49581636      12.00537660       6.15169718    -157.22559912
C       12.72930410       6.52732315       6.65912670    -154.33242796
C        6.04059954       5.52557360      10.02489352    -153.63916677
C        2.62853141       6.09422800       0.25020709    -155.74930089
C        8.86493718       9.60981152       6.64774625    -157.42911389
C       11.45337480       8.78466456       6.04555989    -154.42739169
C       13.54030697      10.32200425      11.38775647    -153.74176924
C        2.35749795       0.72487705       6.72599221    -153.49097497
C       13.87341566       6.57192377       3.56778057    -154.39733251
C        0.10619668       9.63617223      13.95809590    -155.79706133
C        4.76873773       6.83755754      11.82846221    -154.76818121
C       11.84957913      10.09262354       3.98705760    -156.17789031
C        7.34235099       7.84014327       4.73743084    -155.02108130