200
Lattice="14.919689298659158 0.0 0.0 0.0 14.919689298659158 0.0 0.0 0.0 14.919689298659158" Properties=species:S:1:pos:R:3:gap17_energy:R:1 anneal_T=3400 density=1.2 run_id=367 time=0 pbc="T T T"
C        5.98121392       1.30958468       7.67996975    -156.19427282
C        4.71480085      14.40358741      11.35967240    -152.32013135
C        8.54352136      12.78976937       6.98077343    -157.70853421
C       11.59777572       7.63525544      13.58519769    -155.18963773
C        0.37017241      11.09320674       5.00164680    -155.85901700
C        7.26102487       0.95802906       7.60634108    -157.63027455
C       12.51221839       2.37381209       2.33992947    -153.77586477
C       11.75264209       2.45979425       9.74833103    -152.78378120
C        0.84414408       5.99265732       9.86422718    -152.72104543
C       11.95374458       0.92190849      10.99287183    -154.69709744
C       10.04657562       2.31965361       5.89711163    -153.79855743
C        6.23966770       9.16046543       7.52167184    -153.39287356
C        0.14377612       1.45938880       4.31420720    -154.96717684
C        4.22154101       1.89627759       4.96891300    -153.93579291
C        8.86900930       5.71427084       6.94238507    -153.80724709
C        0.28816634      11.72377249       3.76176094    -154.23017599
C        7.34351583       9.04629997       5.29577356    -152.89878039
C        9.48614733      13.57011388       8.13537834    -153.77235251
C        6.53067624      12.65195620       8.31214682    -149.41381215
C        2.43090974       3.70502136      12.14883444    -152.25509557
C        7.18935068       3.85860464       8.66872739    -153.02222918
C        4.35924974       4.75332349      14.67079904    -153.89636673
C        0.68363359      14.70836682       6.80279645    -153.84064059
C        2.34771755       9.88911322       8.13854132    -156.10158132
C        5.12813593       4.63457769       5.46375434    -156.18041422
C        1.88438660       4.37043951       3.48050988    -153.54993395
C       12.30198505      14.18322360       2.08525037    -156.26787875
C        5.29666874       3.71054165       6.14431597    -153.06070985
C        3.36989530       7.95954980      14.28875056    -154.57231805
C        9.29632412       4.93012181      12.31336878    -154.45436063
C        1.59310950      12.84257015       7.11164894    -153.64835065
C       11.53776873       2.63712968       1.96792194    -152.58049194
C        7.38050174      11.26063550       8.05888509    -154.35907017
C        4.43902532       9.27651078       0.99156852    -156.34678807
C        1.53711591      12.61021091       5.16641985    -154.71039865
C        4.15744602       7.91106081       2.13888666    -153.60137331
C       13.67058307      14.61758051      14.39741066    -155.48630761
C        5.14205600       0.47190977      14.59109806    -152.84020175
C       13.57106874       3.79480805       8.56038061    -154.14220201
C        3.32586730       1.47876948      12.96902944    -153.79965726
C       12.18435822       9.08886585       8.50311884    -153.33794378
C        0.45052389       8.53377880      14.80488229    -152.18952001
C        3.79442014      13.03976369      12.59000965    -155.10565895
C       10.44479705       9.73603721      13.56568274    -153.84908705
C       12.68918083       4.11444748       3.05529873    -153.40291658
C        6.23093968       8.27422097      14.46046126    -154.44040063
C        3.24036256      10.34429802      13.52733913    -152.68528914
C        2.64733475      13.75544626      13.40013386    -155.50636625
C        3.38903726      13.53393364      14.89278910    -152.81654212
C        7.27145373       2.57457142      13.63446250    -151.36295249
C        9.32680505       1.06303831       1.78494687    -152.17466216
C        2.03591096       2.64015838       9.20416520    -156.21164218
C        1.41405980       7.11725874      12.29971726    -156.45643612
C        1.29338041       9.69967792       3.59822623    -153.26426610
C       13.49029355       7.85709630       3.36424074    -154.15299184
C       14.20342485       1.15454374      14.10676019    -153.45647655
C       14.29723986       3.46973786      13.47620936    -152.80763162
C        5.70461780      10.40053033       6.00563745    -153.87612616
C        9.39530134      12.56176668       3.86358782    -151.34931341
C        3.75997058      14.38977177       7.98089988    -151.49305426
C        7.51524146       9.75225491       9.01822112    -153.77765826
C       12.99522842       1.65783112       9.86312312    -156.79477064
C        5.25613194       8.87593204       2.49178207    -157.31205753
C       12.01698915      13.72602464       3.02774207    -150.79367485
C       13.51510499       2.36163762      11.20028535    -155.58988957
C       13.38925741       6.37494452       8.40458922    -153.76088682
C        7.07479731      12.83724383       0.52710218    -151.56670273
C       12.14044958      10.93317816       1.47172142    -156.72810115
C        3.60115049      11.78903121       4.97949106    -155.20248514
C        4.85811939       3.02202783      11.40210399    -154.81638640
C        0.02849183       8.49240651       5.86352741    -152.21901547
C       13.00998399      11.92074223       1.56316569    -154.73597874
C        3.45386331      14.50836838       4.58732703    -153.25840961
C        7.24592614       1.41156822       2.47568372    -150.60866832
C       10.72903205      14.83299098       8.75203894    -153.42537879
C        8.01014247       4.69410725      12.77763967    -154.75393994
C        8.15857846      12.68846468       5.59924004    -153.06012799
C        9.24331447       8.20403875      12.18485057    -153.67797000
C        7.18244287      13.92168144       6.81358339    -153.72486185
C        8.20993203      10.79142619      10.77279150    -154.90871227
C       14.59969180       7.00439129       4.82607190    -153.38847504
C        4.28096613      12.03113301      11.10454571    -154.02302890
C        2.64454477      13.38833239       4.07963984    -155.85251600
C        7.54619981       7.80542941       7.39959894    -154.47622971
C       11.34227604       1.79991132       1.27158274    -150.39850545
C        1.03314074       1.88094015      10.14365804    -155.67568857
C        4.30816472       7.29147596       7.08470398    -151.03024464
C        8.96152630       4.24272697       0.83095806    -150.06093478
C        7.36987892       4.59159406       3.03090504    -150.96223002
C        2.08850287       2.15977422       4.95250134    -153.61711651
C       14.54805476       9.34290339       2.59717475    -155.54655946
C        8.71573934       9.25208725      14.35632183    -154.18454531
C        2.96052887       5.02508563      10.20521668    -152.92988228
C        8.44572280      10.14977511      12.66665210    -154.21197495
C        2.84627389       3.18275764       3.87886558    -156.31713883
C        9.45332402       0.34183097       2.56824548    -150.11534667
C        3.85135368       4.51863678       4.35793681    -155.10478739
C        3.66845320       4.73016813       6.43137079    -155.16014425
C        9.08398711       2.03386696       5.08440632    -155.39985522
C        5.63451018       5.08540594       0.48786489    -154.24572590
C        8.36478348       1.08951479       6.55896397    -154.54103259
C        2.86651990       0.48891822      10.98397970    -152.92835695
C       13.78903048       5.09998247       8.46940035    -158.42712585
C       11.41724748       3.69493565      13.10521636    -153.60239236
C        6.51040038       7.97594654       0.56585756    -153.59987708
C       13.01531032       7.44656613      12.06825320    -153.62356480
C       11.56025270      11.80493560      13.89114084    -152.57442452
C        2.75359278       3.98691397       9.46152984    -158.06051420
C       13.43233055       0.32400791      13.31549447    -156.92143057
C       12.87223050       0.88070180       2.24116113    -155.15923633
C        9.51804563      14.83245388       1.54566489    -155.68730680
C       10.17039412       1.78848283      13.79563991    -150.68648608
C       12.75528997       8.24436667       3.98233363    -152.06872752
C       11.13181890      10.40534939      14.52883820    -156.85939780
C        4.74377489       2.49216998       3.60641714    -154.94539415
C       13.23834475       9.07855634      13.05902501    -153.00572977
C        8.16708268      13.64939711       7.96256358    -156.60902510
C        0.10824130      12.20221709       1.39319909    -152.90280578
C       12.46310278       5.85694783      10.84433141    -151.49255527
C        1.35557761       8.62865311       8.67521746    -152.84783390
C        7.00888212       6.56033658       9.44070196    -156.91103320
C        3.45542988       5.39200555       2.70940066    -153.48493040
C        3.51524292      10.22950593       0.49056834    -154.65195885
C       10.54190931      13.02558998      11.72037080    -151.59125109
C        2.23010564       0.11507840       2.98341567    -151.66858839
C       10.31936722       9.59679175       9.41917285    -155.60865668
C        2.85691163       5.99471624       6.59066831    -153.25395019
C       10.27098267       0.24667916      14.82086128    -154.56781252
C        4.65215308       2.34034722      13.92888765    -153.85539234
C        6.81250917      10.73755119      12.95057379    -155.31676019
C        7.05781870       6.19669899       8.12817213    -154.62277987
C        5.87118121      10.02139119       1.98136458    -154.76398440
C       13.26394694      10.82590559      11.34893022    -153.24909564
C        2.30758358       1.02856935       8.40308233    -151.89348446
C       13.47799972       3.68698346      12.85804187    -154.24931137
C       12.71543948      13.98685064       0.96947693    -152.38041383
C       11.30203764       9.09484864      10.23201244    -154.40275594
C       13.59711852       6.04617425      14.73467023    -153.75845593
C        3.44834303       1.23906528       0.26484388    -153.23200065
C        4.52514176       4.84919742      12.14841669    -155.12265336
C       14.33603105      12.35505439      12.14668601    -154.70866194
C       11.91390901       3.19017272       0.89385947    -149.40822366
C        2.01769402      12.15727899       2.20786038    -154.47947984
C        0.00049530       2.45175254      10.80643540    -156.50485312
C        7.14330852       6.22157012      10.97981711    -153.68500415
C       10.20957323       8.68061839       4.53228830    -154.78376927
C       11.03476632      11.49650087       7.27052871    -150.67913328
C        0.12481081      11.72016193      11.51498636    -154.35904418
C        1.53111819       9.99086550       6.90965127    -153.47906771
C       14.79639299       2.69952382       4.85153981    -154.63689495
C       10.22492559       1.16054295      10.75309751    -154.23555842
C        5.80572854       8.84950927       5.47539170    -156.04958064
C        6.67990297      11.88836651      13.79468505    -154.87318754
C       13.80888859       1.90973515       6.53501787    -155.38464383
C        9.38384302       9.05869823       5.69899308    -154.09902085
C        0.83029712       1.29094104       6.23250625    -154.50877296
C        7.54035129      14.71892996      11.66730147    -150.28638312
C        6.13194754       8.38526822      10.93959362    -153.42521494
C       10.46298415       9.24519435       0.78896660    -155.35132453
C        8.16855973       8.61107771      11.06617227    -153.98177909
C       10.27287747      14.03356419       1.24263407    -151.90240455
C        5.59589803       2.18522721       8.31256457    -152.95650793
C       11.07402002       0.27791054       6.89191176    -151.89908597
C        8.82413088       9.89302218       1.21213524    -154.09632226
C       10.04770952       1.45224526      14.78891822    -156.21509618
C        1.84013480       4.68194770       8.31951715    -151.89014704
C       14.19806869       3.66569306       6.60727392    -153.23522271
C       13.12768542      10.59369555       9.35340686    -154.06305457
C       12.26777420       9.38821449       1.67719687    -153.96098513
C        4.73909011       1.87531543      11.84445786    -155.74054703
C        5.90279603      12.71076962       8.83357504    -144.39556921
C        0.09648115       8.30276234       1.76707308    -154.90543261
C        9.26724565      11.84502481      10.80367525    -154.53192982
C        5.87165864       5.09041895       9.75283678    -153.22550451
C       14.10082215      10.89016469      10.24812570    -157.65377478
C       11.27706208       3.99325484       4.53630169    -152.39976389
C        3.09605932       7.25556426      11.97257323    -153.06775496
C        3.93585880      14.24794521      10.70756262    -154.47901558
C       10.85155254       6.67098100      13.27543510    -154.33566504
C        2.19065798       6.62772882      13.39931328    -155.55827671
C        2.69373498       5.90210973       1.06846012    -152.99202508
C       12.15547370      11.38872103       5.30802262    -151.19975551
C       14.42295316      14.38681768      12.33795642    -152.99328753
C        8.93552128       7.01217937       6.81831293    -156.15770430
C        8.16858957       2.89622501      11.09910002    -151.92472705
C        3.49235611       2.74264172       1.70442531    -151.88819100
C        4.73737434       7.71376284      14.59951277    -156.48993753
C       13.81328990       0.59984163       6.77731362    -154.55282142
C       13.02266572       5.87638818      13.81282739    -154.30802634
C        9.37560735      11.03072309       9.08391251    -154.16601963
C       12.33873225       0.31330751       3.11654406    -154.79291105
C        9.75243395       8.69647802       1.89697882    -154.21861504
C        7.96732296       2.23297022       7.65893298    -153.89597209
C        4.42905897      11.63583584       3.76153715    -153.98495610
C        0.16549815      12.97963734      14.25477843    -153.18009204
C        2.17348542      11.90900044       0.94133542    -154.76098077
C        4.02579468       9.80293709       9.88484619    -149.59569991
C        5.97260526       4.87429233      12.05504927    -154.80672399
C       14.20352929       2.37933237       1.34241695    -152.86520476
C       10.83458885       1.71227306       2.19228423    -152.23892922
200
Lattice="14.919689298659158 0.0 0.0 0.0 14.919689298659158 0.0 0.0 0.0 14.919689298659158" Properties=species:S:1:pos:R:3:gap17_energy:R:1 anneal_T=3400 density=1.2 run_id=367 time=1 pbc="T T T"
C        6.16548700       3.43830208      13.94176334    -155.94492746
C       14.63822936      13.65002374       9.43004930    -157.48553075
C       12.04696280       1.96947359       3.11946832    -158.26218863
C        9.68889099       2.84982477       2.31377526    -157.66807994
C        2.37099226      14.35520285       5.13198521    -153.93680780
C        0.70391989      11.38967589      14.22374547    -155.58185423
C       14.05909178      13.74821021      10.84119827    -155.82310013
C        6.12556192       3.58757357      11.49542665    -156.88685627
C       -0.20382235      11.79884837       6.73201745    -154.25065334
C        9.78078136       0.49497263      13.71634176    -156.19775843
C        1.09455317       2.05157664      10.39948595    -156.50259560
C        4.11753585       7.18163720       8.60576631    -157.69323012
C        2.33346925       3.05395596       7.07437956    -156.62757994
C       11.27479428      14.12182907       4.73874696    -155.92372291
C        1.24645351      13.23565921       1.46121796    -156.96694829
C       14.74996291       8.11308833      12.76533092    -156.46344533
C       10.52209596      11.87420772       0.77597453    -154.52735439
C        1.38679855      13.15401867       9.96639721    -156.46306404
C        4.25915354      10.24472401       3.18999369    -154.51862449
C        3.95444873       5.77217415      14.44410928    -155.97674151
C       10.34471577       8.91685675      10.46734070    -155.07970898
C        3.84862337       2.55768234       7.26475479    -154.43478707
C       11.66209450       7.03151529       8.04145890    -155.43413432
C       11.61090504       1.35352615      10.37824031    -155.06432043
C       11.24006125       7.66872030      -0.01773235    -154.10205214
C        5.50954286       0.80728201       9.60144669    -155.89114209
C       14.68533082       1.30535942      11.70804714    -155.80434790
C        0.71695523       4.55344441       6.53847924    -157.03444233
C       13.15512273      13.52505642       2.60241156    -155.68404660
C        8.96567397       6.86438493       9.57477029    -157.25648657
C        3.04372105      13.68912824      13.87043231    -157.32318250
C        2.99957369       6.79778344      12.12469438    -157.09968993
C       10.51508370       8.70075997       6.22146568    -156.42383964
C        4.61867330       3.74690093       2.24566687    -154.21870907
C        9.24104668      14.22717700      14.66245894    -155.19759515
C       13.99113260      13.97367656       1.55612359    -156.98487289
C        0.89639284       1.36096511       1.54885771    -154.97628951
C        0.47854754       2.11307560       4.18562931    -156.64772267
C        1.38875303       2.79663608       6.07155264    -155.40584199
C        8.60575139      -0.21552685       4.26498714    -154.63879731
C       10.97037294      12.20815513       6.73512074    -155.31674399
C        7.98173538       0.04232268      15.00025562    -157.01330847
C        9.51932872       8.08796357       9.85620039    -157.39622952
C        1.60258351      13.63334353       2.72706557    -156.02181467
C       10.35037033      14.31111517      10.40901963    -156.11522282
C        3.69884461       7.78263213       5.93702180    -156.30685074
C       12.09491468       5.25763883      14.67397694    -154.32583386
C        2.81904545      11.15851022      10.25181087    -156.00252704
C       10.18670134      11.15748077       7.71153981    -155.99739331
C        8.64607931       4.50041984       0.52837483    -155.42805020
C        3.50940932       8.01460346      12.82129468    -156.30641516
C       13.50713787      -0.13658990      10.81194076    -155.33695025
C       11.34075423      10.58065574       3.48685075    -156.90983117
C        7.44631249       5.26902255       2.64426129    -155.97536977
C       10.93607258       2.63536916      11.56905532    -155.80505522
C        3.53465343      11.35442067      12.19839765    -156.47459895
C        5.06847209      14.44615328      10.27104235    -156.19314822
C        3.86372210       8.93650598       2.96021555    -156.27968010
C        8.03584909       0.59180887       3.51116984    -158.26399529
C        1.51639246      10.27128106      12.56933096    -155.66511194
C        0.10865846      14.98384396      13.75213409    -155.31685898
C        4.25904911       3.60346304       7.67012275    -156.51390970
C        6.34139014      10.75168014       3.06845790    -155.34999268
C       13.32099983       1.62309808       2.84687067    -156.13650505
C        2.36207029       2.79772522      10.80980725    -153.29181481
C       13.11545127       1.76753559      12.89599756    -154.21891319
C        3.99970015       7.64599761       7.28241970    -156.04908509
C       14.55106854       5.66612500       1.57802570    -155.91038830
C        9.39815100       4.33942147       5.78193163    -156.34145879
C        5.57723349      14.31669514      14.78539718    -155.47294771
C        1.60949132       1.43754340       4.35623596    -154.34968905
C       12.71099341       7.68823525      10.51303971    -155.86418427
C        8.37580913       4.63060905       6.66370019    -157.12352427
C        7.30878280       7.14226414       0.65311089    -155.22229033
C        7.39512304      10.21437737       3.31017179    -154.29370555
C       15.35862656       3.37638537       6.24318875    -154.77619940
C        8.02183951       6.32068161       9.09463976    -153.43434285
C        3.26113077       6.77222601      15.07366049    -156.81939036
C       10.05910816      13.73379779      11.69942356    -155.76537844
C       12.59094959       9.03645298       5.31948094    -156.14245531
C        2.73066121      10.41932914      12.50419160    -155.75095953
C        9.55798564       9.13189423       7.05892276    -157.07284911
C       11.18876735      10.51153282      10.47471102    -157.49656935
C        4.82854857      13.29788923       0.78761338    -155.28015755
C        6.78645939       2.06809273      14.87040956    -156.20509442
C       11.11337816      13.74057133       1.97881331    -156.73403231
C        4.12896433       5.71937337       8.76618280    -157.56774558
C        5.17170142       1.05165011      12.65710350    -155.78348200
C        3.64789387       8.41233253      14.01964412    -154.86011069
C       12.02523974       9.10535210       3.77244344    -155.57014559
C        8.17448285       1.81647217      12.37404715    -155.71918352
C        6.10324206       3.81805293       2.10576495    -157.12654127
C        5.08004977       6.75139812       9.61042834    -153.31995092
C       13.92465046      11.92518830       7.90101986    -156.13108611
C        9.09528131       3.00815252       3.51540703    -156.22549381
C        4.85612015       4.49057284       1.18855318    -156.44657420
C       12.14092701      13.80471108       5.63967239    -156.33700531
C        5.19954156       8.91236592       2.51293819    -155.29203112
C        0.61348121       5.80750398       6.17979499    -156.43925452
C        3.85527755      11.66030414      10.88633033    -156.49754554
C        6.94604039      14.05036376      14.35139833    -157.77537038
C       12.00259165      -0.00068295      10.77038943    -157.66117361
C        6.48075496      13.07886819      13.41826129    -155.29874114
C        3.67976233       1.52242002      12.77846025    -155.09965288
C       13.68414507      13.03570553       8.63329313    -157.23224423
C        1.68777493      11.54457211       9.50973536    -154.73529866
C        5.27505011       3.84411763      14.89198344    -156.66761851
C        6.05197801       2.01397902      13.49109921    -156.01835336
C       13.13798000       1.49902594       8.98830714    -154.03988740
C        2.95729129       7.93120239       4.74720642    -155.88423086
C        8.93763987       1.80255210      13.48065543    -155.61859342
C        8.35389211       2.08593668      10.98042881    -154.50993498
C        1.21592782       6.34385189       3.57348938    -152.40087797
C        2.03882030      13.81775089       4.06088579    -157.47892137
C        5.81171133       4.93297147       4.31801172    -152.10271947
C        6.69494202       4.75671026      12.12545529    -157.07007516
C       13.20635694       7.48356696      11.66354171    -156.92163343
C       10.22356790      11.30809503      11.17616022    -155.24782770
C        7.18336789       5.49957651      13.11288509    -155.20702311
C        1.65196768       7.22709750       4.53304920    -159.16175502
C        0.59670253       6.51116129       9.53016042    -154.21052238
C        8.89555143      10.14601535       7.28725368    -155.53386648
C       12.14103144      12.76677813       6.43423537    -156.18585952
C        3.30966452      12.13463090      14.82562066    -154.72065971
C        0.91231811       7.27648167       5.85393405    -155.03123416
C       10.35850157      14.62769606       1.21408822    -154.57688826
C       13.95119259       3.73175745       9.84398116    -156.25317118
C        1.29900960       1.44152994      11.97695962    -155.43557784
C        2.36169730      13.88700808      12.74842692    -154.25824803
C       14.29765761       6.62414809      11.97220024    -154.14773675
C       10.05531856       1.78593157      11.08095768    -156.72016861
C       10.12083091      11.36757983       3.07057650    -155.53803638
C        2.92345344      14.23141419       1.06852428    -155.62402348
C       13.98850673       0.77616252      13.53584336    -156.33363673
C        6.18116760      10.55035385       4.77946279    -154.04355453
C        8.74113265       3.27355887       0.95201791    -156.33311385
C        4.07298566       4.63566682      13.83950379    -157.03786830
C        9.75315009      11.63076315       1.65877106    -157.07827694
C        5.35339340      12.29789706      13.11128868    -157.06486175
C       11.44823567      14.76527051      12.18288117    -157.67696115
C       14.42122248      14.79496070       2.36047388    -153.52233408
C        4.44809649      12.38783294      11.52578822    -154.81884801
C        4.32408403       4.56087442       8.17752646    -155.39738794
C        4.21612516       4.95448566      12.35541246    -154.89118547
C       11.52205829       6.53713646       0.39822739    -156.65986172
C        1.26129860      11.72718910       0.65654242    -155.89245490
C       10.87995963       7.81829018       8.95073936    -155.93129185
C        0.08586788      10.74096780      13.15900184    -157.24942980
C        6.04681580       1.20272688      10.90165285    -155.27092102
C       10.30235877      14.80565811       3.74166412    -157.02709983
C       10.64403458       0.70723952      12.96385231    -155.96267732
C        1.43860568      -0.08487200       0.96892789    -156.45840499
C       11.24514886       6.03211990       8.60473685    -156.88646655
C       12.64388465      -0.04652287      12.62690605    -154.50433350
C        0.93976437       8.47842676      13.38776544    -155.92074036
C       14.50032667      13.54674965      13.62694298    -155.34906222
C        4.00559342      13.61902062      10.57282290    -157.01869646
C        2.53048374       5.66427496      12.24875160    -153.68263895
C        9.90862817      14.10183669       2.63016219    -156.44349571
C        9.30168029       3.82396113       4.51529477    -156.46345352
C        0.98512023       5.49162432       9.82859896    -154.56427342
C       10.70559322       2.45703411      12.77658037    -154.63223138
C        5.45019234       3.07188943      10.60806321    -154.46198312
C       10.96819467       2.29836322       2.20854669    -155.22835600
C        2.34191379      13.56559322      10.85205981    -155.90471238
C        0.39744113       4.71432342       0.93103337    -156.81199298
C       14.80336048      12.90930592      12.22380588    -154.78991149
C       11.92081683      12.71079946       2.58246394    -157.62137735
C       12.08626126       8.69987971      10.13436307    -155.10602236
C        6.84339293       6.16121997       1.50699306    -156.07341280
C       14.47711164       2.12417584      10.71363493    -156.15052208
C        3.11884169       7.88057989       0.63855375    -154.50610671
C       10.88000438      12.37497217      11.54469146    -156.04436248
C        4.58103092      12.05266212      14.21379404    -157.39437543
C        4.40205433      11.38801981       0.48764855    -153.98555419
C       13.04582108       3.05643263       9.33023658    -155.23955285
C        1.86816890       7.76998023      12.72935955    -156.34654773
C        0.31365514      14.12896069       0.58510098    -156.41395990
C       11.02432254       1.51679529       4.22785204    -153.74869165
C       14.34654943       2.40530755       3.14790525    -156.39693128
C       11.78849411       8.19932413       6.33818241    -156.50422772
C        2.87876897       1.01817182      11.58278143    -155.26320859
C        0.60895010       3.53723454       0.77369480    -155.93278458
C        0.22909183       3.68810244      10.76019928    -154.36748917
C        7.37626455       5.59986666       4.31210352    -154.49945737
C       12.47271106       8.01896001       4.40280031    -155.18965411
C        9.62270725       0.36163387      10.45688200    -155.11692929
C       11.13331087      10.59444153       9.11715358    -154.12369333
C       13.25935168       5.39133417       1.14474002    -155.72519802
C       11.62467592       5.13490947       9.74322850    -152.74809215
C        7.53556207       1.28476279       2.61965873    -155.18152752
C       14.40681006       9.73172542      12.55770853    -154.17326027
C        7.36246384       3.45975659       2.55578754    -155.35318012
C       12.10388142      11.48774301       2.67196716    -155.25436413
C        3.57489183      14.67869156      -0.01999089    -155.09868381
C        7.43152708       1.28285009       0.70366477    -156.42431097
C        7.80623508       3.86716855       7.30714163    -153.23666434
C        7.88192266       5.88234114      14.74304018    -156.60347707
C        0.55346527       2.70999744       1.76650613    -157.59802348
C       14.30086535      14.37847757       8.23678747    -153.04585231
200
Lattice="14.919689298659158 0.0 0.0 0.0 14.919689298659158 0.0 0.0 0.0 14.919689298659158" Properties=species:S:1:pos:R:3:gap17_energy:R:1 anneal_T=3400 density=1.2 run_id=367 time=2 pbc="T T T"
C        4.95942408      13.72096686       6.82244568    -156.16819540
C        2.04707089       3.99635814       7.40961006    -152.80791198
C        8.56669164       8.64045458       2.72041139    -153.85661250
C        8.70505684       2.95348677       7.45871075    -154.66831354
C       10.37445071       0.64866333       4.10607753    -157.11620112
C        0.05171642      12.40308087       3.65296657    -156.90219995
C        7.13908625       0.94746293       5.28622495    -154.98916449
C       13.88223378       9.88906846       1.85045922    -156.58784600
C       14.82875379       0.39671454       5.92563808    -157.55697993
C        6.17906392      12.59157622       1.82973578    -155.52037867
C        3.50766371      12.15402649       9.31852462    -154.39972824
C        1.63404913       2.68172463      15.06441028    -154.01764568
C        5.18642715      14.60233259       1.02683866    -155.51192990
C        1.39663510       1.03612915       2.30309276    -156.10741530