200
Lattice="10.649164796105481 0.0 0.0 0.0 10.649164796105481 0.0 0.0 0.0 10.649164796105481" Properties=species:S:1:pos:R:3:gap17_energy:R:1 anneal_T=2200 density=3.3 run_id=76 time=0 pbc="T T T"
C        0.84423597       2.66080032       0.82468410    -153.19542873
C        1.05899874       6.97600163       3.02998556    -150.35207626
C        5.35744572       6.73740709       7.83459054    -154.70426051
C        1.88797978       6.63125622       7.00191105    -152.80675754
C        0.39880696       9.27329270       2.48245875    -143.70849253
C        7.53560459       3.53178486       2.39945916    -152.90491089
C        5.95916613       6.64967927       1.27296921    -153.00919430
C        3.96047763       0.16803317       2.52499152    -154.25311969
C        3.10074926       2.38654173       5.80481713    -154.74280660
C        2.79265827       5.34282442      10.33864580    -151.78762609
C        9.31138477       7.42337304       4.84858603    -151.24167625
C        4.70191508       1.66436862       1.48611225    -153.42382211
C        9.44731071       2.06666211       4.94844325    -153.52465637
C        9.49074865       3.20360954       0.40333712    -146.59001044
C        2.05931419       3.92906260       2.96485527    -154.49154490
C       10.22152629      10.31815681       9.78603934    -154.45035807
C        3.02008184       2.85457252       8.96989800    -149.11180554
C        4.10262269       8.77153601       1.97743276    -155.35410827
C        7.87698487      10.05380194       6.95859024    -153.50545343
C        8.24508390       4.44098925       3.00894281    -156.00924721
C        1.82345649       0.29498612       8.53555051    -153.55547237
C        5.71969836       0.39063586       8.19734369    -155.46868203
C        0.18960518       7.24511667       7.61090483    -153.84441123
C        9.46552078       8.26734065       8.42370234    -152.98989252
C        4.45500355       2.06241310       4.24876117    -151.27431225
C        4.90928627       1.70518686       8.33246029    -153.36210931
C        0.21933020       6.01503165      10.08629254    -151.79161166
C        2.61345413       7.22605467       6.57970361    -152.31948657
C       10.13310627       0.90156362       4.04652289    -155.38594578
C        5.53511639       3.17872245       6.28419994    -154.24041708
C        5.99073025       2.46469595       1.11056945    -154.63531596
C        4.44896547       9.37782491       6.34679573    -152.51282673
C        9.82733680       7.07939437       4.05398795    -149.36867790
C        0.86278681       7.56903232       2.20623007    -147.41641799
C        2.83561701       4.98385172       5.74521376    -154.12295499
C        4.22311798       4.90096927       5.29663899    -154.22602559
C        3.60532799       3.69651679       3.23812349    -155.28841431
C        7.39749557       0.48121339       1.53130730    -153.85619811
C        1.42109909       9.40692907       3.40429305    -152.33063713
C        5.50636364       8.36102135       3.15462339    -154.15184988
C        0.51467626       4.85429398       9.82167145    -154.12147587
C       10.46916196       1.93200342       6.64537701    -153.15974676
C        1.27457724       7.91422499       3.67127827    -152.75469296
C        2.87283584       8.66033743       2.68775335    -155.65070267
C        3.82516935       3.99271266       8.42480985    -148.14529140
C        7.92028437       8.73219799       3.44391860    -152.39521167
C        4.96819745       3.55021856       8.78996971    -150.06500829
C        5.03717209       0.56416719       9.20946161    -154.07299859
C        4.52780124       8.18424522      10.48736139    -154.54925258
C        2.96616512       0.81816255       1.53884691    -155.08372779
C        8.35619728       8.33871135       8.35318357    -154.22617901
C        2.54210473       0.90709373       0.29731084    -153.34876675
C        1.76666449       6.66306527       0.33534220    -151.12973433
C        5.49790820       1.41856459      10.35719664    -154.02802442
C        7.13304486       0.04209231       3.79623556    -153.85983881
C        4.10277177       6.47557608       5.19659009    -150.20971325
C        0.09473625       6.39967948       0.42012446    -151.54281743
C        1.16499733       1.24086198       7.17179717    -158.05174694
C        4.15419659       5.95213768       6.15353468    -152.51106815
C        5.41970074       2.71501521       4.65428137    -154.06359070
C        1.74181999       5.03249711       0.19389786    -154.62388166
C        6.77509449       8.81004339       3.49196763    -151.93251503
C        8.63321401       4.12180183       7.91498109    -152.89334275
C       10.22691476       8.93264722       0.13744664    -154.49923156
C        0.22340137       4.66425964       6.04375244    -152.62293671
C        3.61231384       7.64342738       2.03970908    -153.23208256
C        1.73697462       0.03358214       4.46360807    -153.77172142
C        2.22348171       3.34583979       6.84339823    -152.83834496
C        4.68358787       5.81740445       4.65164038    -149.87934011
C        0.95861652       5.31229326       5.92104212    -150.32490553
C        9.95210242       2.04670558       2.34227315    -155.67419093
C        6.87053230       1.40705285       3.40279152    -155.67382524
C        0.62486317       9.64587503       5.92673942    -155.57899802
C        5.09892660       4.29670371       6.51903532    -154.86322080
C       10.08325753      10.23792600       2.58728913    -154.17225465
C        9.27504982       8.01026981       2.49231988    -153.77011286
C        0.35946362       8.17110415       5.46408646    -154.91965936
C        4.81275159       8.44322226       6.15117057    -154.66042875
C        6.64237394       2.24767662       8.34298167    -153.74970711
C        7.14558958       0.24967499       7.78659475    -153.18987792
C        4.19086166       3.06116632       8.13468400    -148.53788383
C        9.44363674       9.81181032       3.53911148    -152.88610899
C        0.79189319       4.66794425       1.48135207    -153.89641453
C        6.45104040       3.75108311       6.56940587    -154.46716940
C        4.98524676       8.68209367       1.24693200    -153.25000460
C       10.08595177       1.27516294       9.73275092    -152.59104127
C        3.25540708       2.13987512       7.27188867    -152.96569819
C        4.28290240       4.69410925       2.72892302    -155.35704015
C        8.85844384       4.23388429       5.51576685    -153.85285845
C        7.94326527       6.44477869       7.73333828    -155.43295018
C       10.47983243       5.18377914       7.01235788    -153.57181960
C        3.39576307       3.95451410       6.62034082    -153.11866126
C        9.98828828       8.11169246       4.12320752    -152.57487129
C        7.89750581       3.83264506       8.98392295    -155.90670642
C       10.58336361       0.94962010       5.28277378    -155.06384345
C        4.77946230       4.83527457      10.33430094    -154.05231587
C        7.80928812       8.59269393       5.58918220    -153.28504339
C        8.76570026       6.63888102       0.54961617    -153.84080725
C        9.88025250       1.33886624       1.08073049    -153.92452832
C        7.55984209       7.82150272       2.72417350    -154.26803401
C        3.50717464      10.05315234      10.59279877    -153.96093975
C        5.49871754       4.46457715       8.63105222    -150.20257128
C        4.54281656       5.03201789       1.27725018    -154.12947952
C        6.15387546       0.45385675       2.10448795    -153.10656878
C        0.82663716       0.01764215       7.08265301    -155.28150347
C        9.82626124       7.48555352       0.95541538    -155.24359409
C        9.88996454       3.46435434       9.26679671    -152.54533855
C        7.83909514       8.34773120       1.36185779    -153.44514725
C        6.62679422       9.12615319       7.92061449    -148.95473439
C        7.35750796       5.00690716       9.02335681    -154.00994169
C        8.52265438       3.23379993       7.21651302    -153.40588544
C        2.38778768       7.10730583       9.11964655    -154.27156103
C        8.05864897       0.96273348       8.97264548    -152.65603206
C        8.49745845       7.59942503       9.43299823    -153.99280289
C       10.29878598       5.20109468       4.34239928    -154.46560044
C        4.56982284       8.05821235       8.52265438    -154.51064804
C        7.33216295       3.35949202       7.32396309    -155.44048798
C        8.81570874      10.33185163      10.37427791    -153.59258512
C        3.09322030       9.89229671       3.08358281    -155.08526545
C        1.29270211       0.15156637       2.23855028    -144.90265097
C        7.04076985       3.67884982      10.05886029    -154.79842670
C        8.83477075       1.20992616       8.24427456    -152.35889068
C        7.64729303       7.46295599      10.04723141    -153.30913646
C        9.80486706       4.82209091      10.32885922    -154.30596459
C        8.93147581       8.33253484       6.98445707    -154.13090563
C        2.17024654       3.41829671       4.60337836    -154.61826347
C        0.78244632       7.27466810       0.10796869    -150.91708165
C        9.03056629       0.14774119       7.38829469    -154.95373998
C        2.27703636       5.78785301       4.36033247    -153.80277554
C        9.87553492       2.57969628      10.61380957    -138.19683333
C        2.05810019       1.95773181       6.63334345    -155.95737380
C        8.56204564       4.69134046       1.68946870    -154.43280156
C        3.71852861       6.33154612       8.07865875    -152.99069430
C        3.29664065       4.69901851       9.18894067    -149.31060554
C        3.13874548       2.61097287       1.54219075    -146.43903981
C        3.49521562       7.89303316       7.09499540    -155.19345176
C        1.99682489       5.30704322       1.58184824    -154.55711937
C        3.87680715       1.90741450       2.62015245    -153.58026983
C        7.60552701       9.96903459       2.66870200    -155.80650226
C        1.32013436       8.53867072       1.18881951    -136.79988745
C        5.49144416       3.91098032      10.51476169    -154.40481125
C        4.05643726       2.83264589       5.03175166    -149.94857635
C       10.26082170       0.17192757       6.23045360    -155.92097190
C        0.79719009       8.94907888       1.34930243    -138.66042039
C        4.01108246       9.99106771       4.61710513    -154.46761953
C        0.64519030       0.13340315       1.62004679    -146.08213264
C        3.59210172       6.51188973       9.92275332    -152.94007886
C        5.31518983       3.14783987       2.86417807    -153.31268260
C        4.01811091       9.14481053       8.00191022    -156.40161916
C        2.06453228       9.74177076       4.76987805    -152.43632021
C        8.02396464       2.32642719       9.42786533    -153.52046878
C        4.63208851      10.55071327       8.52417721    -151.10722785
C        1.82313701       1.48433384       1.41126992    -155.09477738
C        7.62741104       6.45061443       4.05644791    -153.99643789
C       10.34613216       6.79570062       5.65182058    -154.79460007
C        9.96554166       4.44131937       3.40976673    -155.35896390
C        9.28302604       6.34715780       7.70677926    -154.76317499
C        7.42769660       5.14099080       1.41466700    -153.43431564
C        0.51097781       3.39611450       5.00936712    -154.51310784
C        9.04152428       5.40687914       6.36250324    -154.60052925
C        2.83221992       5.58117402       7.36447251    -153.88416797
C        2.24637742       9.02022595       8.70600105    -153.87371059
C        2.88804284       0.69463331       6.75235852    -151.93948147
C        2.21736909       1.12109082       3.72433240    -154.43524941
C        0.94487803       9.86189334       2.60922641    -140.86895336
C        6.27638345       9.28837192       2.69509063    -152.27944803
C        6.23622545       3.11356021       3.56689515    -154.49973852
C        5.63504815       7.68179632       5.40732641    -154.33970885
C        9.02755258       1.05646637       9.68261465    -154.55303899
C        5.90779456       6.05374136       6.84005439    -156.12813227
C        7.64617487       1.28202100       2.34557439    -153.45752965
C        2.71329005       4.07017468      10.02906393    -150.28636656
C        3.00587585       5.41899789       8.51291039    -150.75119511
C        9.08666609       3.50948550       6.20111515    -151.00006047
C        5.07201616       1.19423994       4.93513179    -151.94265337
C        3.77853665       3.67246032       9.61385299    -150.25700041
C       10.63641775       2.73124454       0.03473406    -143.29481216
C        3.54229558       3.32024985       1.51292684    -145.76062634
C        0.94594721       2.20467529       8.24906668    -152.54546997
C       10.50204658       0.95926718       2.84952481    -156.30716275
C        6.33562475      10.52729575       6.22700327    -152.65338885
C        4.02395730       8.36317248       3.96361914    -155.18314944
C        0.15016707       5.41523874       2.62626507    -155.08740228
C        7.39594079       5.68623868       6.99223096    -155.02651934
C        7.60200213       4.08900240       5.21780322    -153.19721976
C        2.35529708       6.68373530       1.23397197    -151.36260540
C        9.19627794       0.47728492       4.83514678    -152.99124472
C        7.15129753       6.57404890       9.55479273    -152.70486025
C        0.66486250       7.00056925       1.53688746    -148.06803827
C        8.42254158       8.54491113       0.49854278    -152.99787837
C        4.22711142       1.80692898       5.37643318    -150.12072984
C        6.49207163       3.67763582       0.69721040    -156.43269091
C        6.77090936       9.93867382       7.26068575    -153.21218556
C        9.60663286       3.20432304       1.80241374    -155.16730298
C        7.83969149       4.33791598       4.20812396    -153.40168591
C        5.17789015       9.69183683      10.21027012    -154.11445953
C        6.05960905       4.72500247       3.04918601    -153.89062710
C        2.29679056       4.06556359       1.00168706    -153.21780262
C        5.89483452       0.11979884       1.18838290    -150.10795054
C        6.21918679       1.41728669       5.68164889    -153.80547426
200
Lattice="10.649164796105481 0.0 0.0 0.0 10.649164796105481 0.0 0.0 0.0 10.649164796105481" Properties=species:S:1:pos:R:3:gap17_energy:R:1 anneal_T=2200 density=3.3 run_id=76 time=1 pbc="T T T"
C        2.56137971       1.79822862       1.01897492    -156.12315739
C        4.64702929       6.70870759       9.43010166    -155.63679265
C        3.71703773       8.00909840       4.65628341    -155.68571107
C        5.08650967       5.06166517       8.83031940    -154.77377196
C        6.76513752       8.77841537       0.71631181    -156.14271282
C        2.91416524       3.28545902       2.95582478    -157.18563393
C        2.38500825       7.35884975       7.14144705    -156.30538986
C        7.02604205       6.52805516       9.24254857    -155.39569486
C        1.47472829       2.77309576       3.03958046    -155.23349564
C       10.12825025       0.83519270       8.60951961    -157.43312326
C        7.82786027       0.12915520       0.08198536    -155.65495100
C        6.59909574       7.88268217       2.78372363    -155.16841875
C       10.24565729       5.93023235       3.02042261    -157.20123055
C        3.16751952       8.97741631       5.85960709    -156.79969422
C        6.92313917      10.30306694       9.88802639    -155.51823524
C        2.80608687       7.41985882       0.26651878    -155.97697801
C       10.10385301       6.33408062       6.50775785    -155.76211251
C        0.17274543       6.56470959       0.67101985    -154.97968694
C       10.54682632       6.97631045       7.86549442    -155.67570477
C        3.18075644       4.61287742       6.22275426    -155.77248913
C        1.51483304       8.51135561       4.22083906    -155.00446924
C        2.15730780       9.48609496      10.02618866    -157.24286084
C       10.39242408       3.99495963       9.85189378    -155.70672076
C        5.01037879       7.27583951       7.78862875    -155.31751776
C        3.90934034       6.55212227       4.23673827    -156.04463446
C        7.88299099       2.09188999       9.02677519    -154.84307340
C        7.29898015       9.32061759       8.98200610    -154.56312103
C        9.66107139       6.29283641       4.26351027    -156.33775127
C        1.98767726       6.04117535      10.03296152    -155.09142327
C       10.40823809       5.44739922       1.17878800    -155.07456576
C        1.40846919       7.99097353       7.40774007    -154.32295427
C        0.73467736       6.78344343       2.97628182    -154.46536501
C       10.18641599       5.34595527       7.78097200    -155.02234942
C        4.48106205       4.40656050       3.66863727    -155.45172233
C        7.90201040       2.04836685       5.07960901    -154.69260740
C        6.28608484       2.31177394       2.34645827    -156.63034157
C       10.56973268       3.18919057       8.36522777    -155.33166110
C        5.68141461       0.25286761       0.76283269    -156.02967864
C        9.69808789       9.73123874       3.25042327    -156.58011251
C        5.68437508       3.40533667       0.84043528    -155.67213762
C        7.69703528       6.83566694       3.26697207    -156.22837269
C        8.71121914       3.90566638       9.66602325    -153.97926632
C        1.05380621       3.66487812       0.36531321    -156.68939783
C        4.92670830       5.56764958       4.08353938    -156.66657410
C        6.17138268       0.96958090       7.97855660    -155.99616193
C        0.92419842      10.81838002       6.29105800    -155.21621372
C        4.88743418       1.58933460       2.12389073    -156.16705329
C        9.64523608       4.01716314       4.53941948    -157.05384249
C        3.96201111      10.50890465       6.09012956    -154.63030580
C        8.16098744       7.62738974       0.98914022    -155.42514554
C        5.43639863       5.98615111       6.96795086    -157.71365243
C        1.64935329       5.77096344       0.92114317    -156.59658291
C        2.94198086       2.07232747       9.64578984    -156.57912499
C        2.20157638       6.00276381       2.14450751    -155.46140194
C        1.50512100       0.31687229       3.80679954    -156.51266075
C        9.23406118       1.88596709       7.06977817    -155.04370231
C        9.74750001      10.46393322       9.44989845    -156.25255595
C        8.54284519       7.39587690       6.39907248    -156.41009654
C        3.88826565       0.74883223       6.97838704    -156.84800582
C        7.06590188       7.98867331       9.30434567    -156.35613139
C        8.76003491       9.84032878      10.17709797    -156.07895729
C        2.46029784       2.37704267       5.47266968    -154.13275941
C        4.00307429       9.69604325       7.94970801    -154.52750632
C        9.94021795       8.11841208       9.72173968    -154.41155983
C        6.15315131       1.30630110      10.44361462    -156.50545816
C        1.52051970       1.71016002       7.27201646    -154.99262974
C        6.02616002       8.60404594       4.30119766    -156.41869791
C        7.80176981       1.86169764       6.27900314    -156.85659808
C        6.93659972      10.02975613       1.55433080    -155.61361908
C        4.40900981       4.87154563       2.14058862    -155.52753491
C        1.29123253       2.03666342       9.54250359    -155.39597796
C        9.25970437       4.04787533       5.83402779    -154.39986232
C        9.88712121       1.91278168       3.36894848    -154.96017127
C        9.04668913       6.93945370       2.50951828    -156.45112127
C        9.56270506       0.67998431       7.38322569    -156.42837734
C        8.56588999       8.10336481       7.71801413    -154.64855469
C        7.73607512       4.14355807      10.38981504    -156.84923103
C        5.95766460       3.37958699       3.21046761    -156.98843764
C        6.61792346       1.59375400       6.74203948    -155.79850159
C        8.70925969       3.82291172       2.28758969    -155.90383442
C        8.47303992       2.06802521       9.95159126    -154.87118593
C        5.92613242       4.68405643       7.69083746    -155.63033710
C        2.90608253       1.65741471       6.79936393    -156.55180111
C        3.90476120       8.34387620       6.68513034    -154.88926557
C        2.06096481       9.80003234       1.77317113    -156.97802045
C        3.34982258       3.92040483       2.00670732    -154.43235928
C        1.10636303       9.87654659       9.18298779    -156.08532933
C        3.43579328      10.29224739      10.19885421    -157.41054459
C        4.12083276       6.99622439       1.79648215    -155.03177768
C        9.75874553       2.35314594       1.24718758    -156.63476306
C        4.92647402       9.39613082      10.10537584    -154.00301531
C        1.34464874       4.61590178       7.74438147    -157.37187332
C        2.20771030       6.63142660       6.00033580    -155.88823844
C        6.46521444       3.19532449       4.37990564    -155.62375455
C       10.19908850       7.43351105       5.15305630    -154.77161153
C        9.11519520      10.62839892       0.57516139    -154.12140152
C        1.18433621       5.49499033       4.08432742    -155.61397400
C        2.79877090       0.58555924       3.56872681    -154.93944904
C        4.69951902       1.29812254       8.13208561    -157.48241592
C        4.09816069       9.16126349       3.35203760    -155.44815740
C       10.03581550      10.21426355       4.50567227    -156.41695610
C        7.07193995       5.46520462       3.34301776    -155.46825524
C        3.39492179       2.30699246       1.87284731    -156.80677966
C        8.71159186       2.61241051       7.80601883    -155.33215621
C        7.53259088      10.19159148       5.34878795    -157.16086397
C        3.14864920       0.17203726       0.86480909    -156.68852732
C        3.45630358       4.42314125       8.98395490    -155.44575714
C        9.37962461       7.56503888       8.58937139    -158.41581869
C        3.63260050       2.98064798       9.04788183    -157.32119236
C        8.96481835       6.17866671       8.46034611    -156.67463178
C        5.63489906       2.37644632      10.57496142    -154.91909774
C        7.65884737       0.05872429       2.95739020    -155.26266630
C        0.54618075       0.42885145       4.90083083    -157.43627372
C       10.08829458       5.62220526      10.20268791    -156.90461046
C        9.64930406       7.71116672       1.37572300    -157.02799325
C        0.83324922       4.47845301       1.38805474    -158.02924086
C        2.57821604       8.62407702       2.99526928    -156.50349350
C        0.64653955       9.44953638       6.38842331    -156.46603995
C        8.16539620      10.60175471       7.28228226    -153.62921501
C        6.41292704       5.85633779       4.77835479    -155.37360571
C        8.79359043       5.81895922       9.88894222    -156.47508870
C       10.29210895       8.90819674       1.72310941    -156.01755861
C        0.16750284       3.16348349       4.07772494    -156.23832925
C        4.18044678       5.57007759       6.34991593    -155.14896431
C        5.90941323       4.87658268       2.85172919    -156.08056856
C        1.04745291       0.69163770       8.61801765    -156.21011603
C        6.80009872       1.05577204       9.24673369    -157.09450652
C        0.11588954       5.01186967       5.06023818    -155.22055410
C        9.08176748       8.22912080       5.47098712    -157.38850843
C        7.66631244       1.74079767       0.60446257    -155.81143658
C        9.68983479       4.57725596       3.20429109    -155.79467946
C        6.34493212       6.68771809       6.08082219    -157.63593591
C        3.30313664       3.71861380       4.27082624    -157.23827338
C        0.67411875       6.04958819      10.01402731    -155.22934508
C        0.37909962       9.24475294       3.23779336    -155.35209002
C        6.46149788       8.13453492       5.66085107    -156.57170198
C        1.08417017       9.00702099       0.90014621    -156.25332418
C        3.93917930      10.34480102       3.52823868    -156.50344289
C        7.81806304       3.98844234       1.17655167    -155.94940105
C        7.81722175       8.87760169       4.55849213    -153.98491657
C        5.98897314       9.91009146       4.82463606    -155.80281346
C        5.83535894       8.56810501       1.73889147    -156.32044645
C        5.19333144       1.38933264       4.33645705    -154.54758695
C        2.80942006       7.13351343       2.05750383    -156.29407746
C        4.13004428       1.92317527       5.61815857    -156.24296583
C        5.68276706       1.85449880       5.41930672    -156.01180809
C        8.55409071       1.65870326       3.65979847    -156.24620890
C        1.29270211       3.83009991       9.78777515    -155.69270796
C        0.62602926       2.34658606       4.98018841    -155.04570947
C        5.79473237       3.08093117       9.03409116    -154.97374276
C        4.50536345       7.85752884       0.94146923    -156.16718313
C        8.08066079       3.89809483       7.51299641    -154.60012380
C        1.78433146       9.15475685       5.71976225    -156.78135409
C        4.67160756       0.32714980       1.60657560    -156.85421539
C        9.37325641      -0.01760829       6.15839070    -154.80723856
C        3.80341310       0.86674298       9.32860447    -156.22738423
C        6.99768333       5.26331775       1.32999549    -155.73418863
C        2.47989230       4.86158866       4.62078975    -156.07691639
C        9.48910868       2.73277802      10.55333296    -156.37475637
C        1.65509319       8.23625574      10.22942797    -155.78147910
C        6.54750054       4.05242252       9.88227584    -156.39059671
C        7.65119062       6.21941042       0.03921363    -156.16768231
C        5.52900377       3.58639377       7.22578844    -156.48458707
C        6.13877494       3.25598214       6.06939563    -155.80463191
C        1.95719935       5.32621172       6.88727279    -155.92132596
C        4.77120920       8.80694448       4.40203460    -156.27552130
C        8.46366865       9.49086579       6.37905205    -156.04741364
C        3.81802376       6.20657817      10.35135025    -155.12918443
C        5.42863539       4.73819679      10.49325037    -155.09145545
C        9.79428179       9.50046069       5.82102516    -156.85925227
C        6.02589379       8.92215779       6.96375509    -155.80053713
C        1.16854350       2.35842793       0.74587070    -156.64924143
C        7.99905624       5.44643014       7.43015656    -155.39023907
C        4.90608087       6.51577667       3.26960242    -153.98537031
C        6.57196167       4.11733983       5.39057527    -155.69350874
C        1.21877561       4.10309125       2.53893127    -154.90590414
C        8.15638700       4.55176186       5.81904442    -155.88817916
C        8.36137278       5.56295330       4.43906175    -155.59015613
C        0.18525607       1.67664710       1.51441773    -155.32028316
C       10.11032771       1.99495064       5.62712517    -153.76793763
C        5.13295068       8.68909017       7.81662540    -157.05782879
C        7.26067510       3.05911103       0.89456286    -154.94534274
C        1.00899239       0.24286379       2.08395636    -155.36093475
C        3.41833930       5.79292202       5.29614913    -157.74820596
C        5.15212982       0.39306387       3.25425697    -156.13536263
C       10.29587875       9.19800311       9.26667957    -156.46446731
C        3.59684060       3.08023897       5.42135136    -156.35844802
C        8.17925076       0.32173683       4.44315103    -155.34430143
C       10.68771477       1.83459551       9.30848819    -156.07129798
C        0.65721321       3.63253660       7.10633676    -154.54387281
C        4.73661006       2.83825800       8.00111153    -157.22269171
C        7.84548464       1.64658451       2.16165266    -155.63088063
C        5.87169389      10.36632298       6.21285053    -155.41383109
C        5.66928521       4.84778734       1.21072484    -157.54291221
C        8.99270851       2.43083160       2.39896930    -158.33868043
C        1.65731887       4.90020253       9.12029615    -156.71144267
C        5.89514335       8.42681189      10.27729596    -157.87535083
C        5.47196684       7.18852701      10.81933845    -155.31870571
C        9.11200045      10.73467759       2.29764250    -155.78856611
C        7.71162463       6.47369117       6.85157679    -155.86025956
200
Lattice="10.649164796105481 0.0 0.0 0.0 10.649164796105481 0.0 0.0 0.0 10.649164796105481" Properties=species:S:1:pos:R:3:gap17_energy:R:1 anneal_T=2200 density=3.3 run_id=76 time=2 pbc="T T T"
C        1.64124928       3.99518326       9.08036179    -157.22481358
C        4.27145454       4.91844455       0.77622508    -155.94078542
C        1.06502297       7.65234073       5.35605068    -155.53376538
C        6.15966860       2.79553355       0.36392243    -154.29882154
C        4.77683196       5.49741834       8.34573980    -156.82120680
C        2.64460294       8.42373428       1.78114736    -155.82706310
C        1.66164243       8.74629749       5.77373222    -156.67325168
C        8.57897781      10.01845736       1.86912011    -154.84693340
C        4.11344224       3.54757757       2.03347932    -154.81965271
C        2.07671493       8.58846621       7.26112237    -157.01964701
C        0.94924206       1.58153941       6.08985268    -155.81701291
C        8.30398443       6.48148636       1.96637893    -156.29055326
C        7.65159529       3.35923644       5.60816966    -155.95780657
C        1.84705504       6.36214117       5.79967359    -155.48067980