200
Lattice="11.681721770322822 0.0 0.0 0.0 11.681721770322822 0.0 0.0 0.0 11.681721770322822" Properties=species:S:1:pos:R:3:gap17_energy:R:1 anneal_T=3100 density=2.5 run_id=302 time=0 pbc="T T T"
C        8.80533142       9.26729679       8.68489287    -154.54985721
C        9.35594937       2.39029055       2.61988310    -157.45385264
C        0.39632461      10.52205389       2.30221036    -154.08680710
C        5.34997157       7.61627232       8.21383912    -155.35272732
C        5.01998630       1.69471410       7.37670357    -152.69907697
C        0.68405009       8.58641595       3.39939272    -148.08667090
C        8.85837812       5.62915304       5.11973652    -153.60421546
C        8.13398287       3.08148634       3.99852486    -152.81363951
C        3.44037220       3.29485299       8.25182808    -137.57510834
C        6.29252298       6.50833110      10.23199674    -155.66974141
C        5.75815430       0.80183338       8.46440037    -145.85823030
C       10.74945028       3.23543975       4.33651212    -155.69734445
C        1.97516888       2.44528809       5.52394746    -152.38742489
C        3.28060129       6.48322708       4.29628027    -155.14456071
C        2.34697472       3.85811057       9.50645668    -155.23770782
C        2.49968987       1.64228654      11.15817036    -152.79994978
C        8.58664959       4.18890188       8.77416459    -148.86409671
C        1.70201518      11.57302335       8.65669319    -153.01600529
C        4.17927614       0.81542623       8.73657280    -154.13485378
C        9.06460723       9.80853432      11.49560858    -154.37920322
C        6.71315841       9.06419837       1.64151554    -153.99666589
C        3.61650920       5.13881277      10.71621578    -155.35385799
C        6.69875485       7.83682323       7.07630810    -155.22651034
C        2.56409120       3.59672036       3.75223912    -154.38478292
C       11.18270198      11.29222980       8.21546288    -153.73833584
C        9.02603419      10.85670017       0.33779801    -152.84898387
C        2.67086214       7.33964915       0.59668249    -154.94509222
C        2.05592462       7.22114977       7.03747805    -155.84938510
C        7.34432184       8.58575009       3.45764946    -155.99456130
C       10.85629131       1.73146480       0.27604376    -154.80418344
C        5.08004203       1.66833678       3.64822507    -150.63662584
C        4.10388231      11.13793762      10.28841945    -151.02669909
C        5.44258426      10.25797688       5.23620328    -153.99399891
C        2.49258738       3.73513708       2.44733239    -153.21817980
C       10.61821782      11.61807975       3.96512682    -154.82203870
C        0.74841287       0.01342732       9.84947876    -153.32700828
C        3.13106357      11.12504100       9.04697952    -134.53757591
C        5.56914404       0.17045151      11.63658360    -154.81282237
C        2.92596758       1.46193243       2.09721951    -154.10219281
C       10.14723416       5.41597330       2.89393630    -156.55543399
C        2.68975148       2.51551860       6.56704344    -152.91087577
C        9.01735467       4.87253960      11.24711499    -154.09829486
C       11.18691908       0.76636768       1.97006397    -154.17701252
C        2.14990407       9.76534700       0.11843864    -155.71609962
C        7.64131793       4.30752977       4.21933277    -155.73116158
C        5.46044562       2.70915482      10.44738432    -154.25696023
C        7.37773156       0.03362700       0.43863463    -155.07950217
C        4.41835426      10.30711021       1.01223054    -153.32049387
C        7.04102930       2.44212234      10.31855829    -155.37494124
C       11.39210852       5.96583194       2.31340145    -154.98481092
C        6.27365700       3.60385789       8.10010588    -153.09552936
C        3.53206203       0.73763064       7.62635365    -151.81997843
C        9.35576247       1.20187394       8.94829233    -153.20019709
C       11.10699274       2.60330674       9.30252886    -155.78658955
C        3.42499905       0.84851004       2.86102889    -153.55127478
C        4.37043584      10.84935237       8.79539027    -141.77209131
C        6.60680802       0.01763975       5.89071847    -153.98768103
C        1.11646537      11.53973044       7.00646308    -155.00083363
C       11.45202408       8.55382395       6.32039556    -154.67138121
C        7.18636160       5.87410707       3.04706031    -156.05545094
C       10.75186840       4.35384779       8.93184447    -144.27853139
C       11.01644772       5.47177689       8.74882693    -152.02458367
C        0.63030248       0.22665227       8.53236463    -155.43853093
C        8.54070538       2.96228605       8.50809001    -142.01041438
C        3.44838586       6.56047831       0.28006694    -155.94162355
C        4.68291021       6.36178390       1.64986797    -151.96692626
C        7.71855748       4.53562707       5.45746678    -154.80539345
C        7.97912996       5.64175762       2.07593541    -154.94435529
C        2.31514203       8.47445833       1.22051797    -154.61635661
C        6.70328736       0.24309546       2.84855281    -153.48987934
C        5.83879322       1.43876758       8.89493022    -142.59207355
C        7.13424944       1.84245284      11.49581885    -156.25390520
C        4.31990071       7.61170477       2.83869344    -154.66131974
C        1.21213050       4.54924795       8.62525768    -154.92365751
C        0.73246148       4.60311237       6.69501670    -155.10968339
C        9.47732246       4.41126346       7.76800621    -153.93960907
C        8.94066417       3.61941795       1.89497386    -153.16077873
C        9.42251183       1.77122938       3.89574907    -155.71838209
C        9.27437591       6.69209627       2.41248582    -155.74530012
C        5.62059034       8.44523066       3.48813876    -154.81859434
C        4.75321082       2.50869648       4.25027765    -154.87365766
C       10.40913836       6.96151182       7.55591287    -154.62357777
C        6.74458224       7.36941418       9.03212037    -156.28477526
C        6.71257433       7.30301527       2.78922134    -155.58451378
C        5.76010514       2.27672085       0.78624646    -154.53362622
C        9.76902674       4.63590297      10.36894156    -153.60546983
C        4.64969908       5.85165480      11.64560189    -154.66876165
C        4.08203749       6.68105704       7.41858255    -151.96775907
C       10.61280918       0.49355041      10.09581122    -154.34853727
C       10.51467104       2.71001927       1.54262977    -155.60418128
C        9.30671092       6.44332232       5.49869157    -152.71752757
C        9.01064936       6.00108738       0.04970129    -152.31886052
C       10.74865593      11.31950662       6.41438670    -158.12039981
C        8.92363222       1.68337115       9.95808372    -150.68717836
C        6.11591871       6.08129408       5.76579414    -153.88924684
C        7.34983561       9.21479913       6.34583835    -150.45070117
C        9.21796488       5.64574109      10.24902869    -153.81034256
C        8.66915759       9.38713957      10.71355235    -149.77700904
C       11.45368288      10.11324035       9.95794354    -154.08860841
C        3.58287752      10.47938056       6.39604639    -153.55006780
C        3.62652043       2.83581973       8.75234313    -140.94860506
C       10.10382488       3.19479904      11.37617466    -153.64917830
C        3.49429502       3.06965276      10.86504092    -156.13184662
C        2.11045490       9.14608724       9.52486707    -154.02238014
C        9.64872837      10.87530915       5.88206232    -153.22187228
C       10.57861678       6.85504461      10.10717754    -153.24791148
C        3.38759418       3.61608866       0.38614866    -154.84044906
C        0.01946373       7.09540771       7.00743267    -156.88166178
C        2.35855131       8.32121751       6.48194209    -154.29218580
C        0.32891990       2.91109675      10.22150655    -154.08920932
C        9.39615786       8.44630538       2.46230836    -153.92344775
C        0.56668500      10.04372243       8.53939702    -156.70443867
C        1.04506902       2.32829565       8.93215987    -155.27661364
C        0.93817660      11.07220457       0.72093395    -153.63980875
C        3.62145057      11.09560306       8.59946444    -126.56381381
C       11.08990238       5.98055091       3.95807106    -153.74234496
C        6.47714091       7.90780137      10.75091050    -156.83692654
C        2.87236016       6.18722394       9.78312658    -153.05955282
C        9.81907123       8.13016295      11.11535685    -153.75469798
C        8.36105218       0.90588481       9.71116717    -149.71579831
C        2.54545886       5.35817214       7.61893576    -154.14303584
C        9.99428538       8.63932247       4.40923084    -154.81548896
C       10.43680068       9.54555540       0.13165885    -154.48742397
C        6.87204151       1.48521411       5.20990773    -154.06813052
C        2.19394417       6.64524088       2.36556034    -155.79041337
C        7.43173616      10.04339534       6.47957070    -146.98454313
C        4.13091382       7.15048703       1.33294286    -153.50106610
C        8.88519935       8.94807038       0.68123012    -153.24227774
C       10.49103892       4.67682404       8.25465505    -143.91736456
C        0.57270342       5.64771530       6.45290133    -154.66039169
C        8.48692273       7.64955355       7.52287696    -154.22263651
C        3.92302590       3.68063017       9.70906446    -154.49793739
C        5.99974398       4.48251028      11.64105770    -153.10299537
C        6.72415091       5.44453511       9.04368527    -153.46216397
C        1.80774644       1.90396879      10.04914274    -156.34630670
C        3.11977902       5.32355920       4.84859207    -153.71762315
C        7.31059671       1.72237642       1.00550420    -155.39443628
C        2.04926604       1.05628348       3.14176402    -155.80225484
C        4.32514580       0.67283680       0.32693401    -155.25284849
C        9.17578218       1.14468491      10.85527500    -151.07509853
C        0.44030979       1.02821230       3.38703346    -155.30197501
C       10.48746431       8.00046079       5.42516682    -157.59687568
C        1.51904437      10.06064924       7.37766147    -154.56706213
C        4.38222270       3.25470291       5.49751172    -153.81158590
C        6.22728056       3.49044006       4.32169970    -154.10524373
C        0.16048466       3.04651127       3.11819031    -154.69127660
C        0.10253760      10.86611564       5.59705167    -153.00808550
C       11.34744930       5.92028491       9.94514038    -157.06464192
C        9.54149016      10.02625825       8.91531483    -153.93270335
C        5.95603098       4.08204917       6.31624855    -152.18336938
C        3.72047652       5.11900057       2.60161289    -154.96749263
C        5.26594495       6.26302663       3.54971311    -154.20360040
C        6.98118384       1.65993762       3.99146910    -154.21528085
C        0.09973819       9.92287501       0.39737012    -155.17178451
C        6.64867531       8.27162860       4.99866715    -153.98486117
C        8.66613202       1.24705884       1.74333343    -153.99060538
C        3.81102155       2.47070752       3.31495723    -154.82339231
C        4.87898791       6.07672653       7.18360471    -154.66649390
C        0.99026306       7.12427325       1.19311265    -154.72659511
C        4.23249807       4.43549135       1.25914943    -155.82992550
C        4.31407153      11.01895929       7.70974946    -149.36690516
C       10.84729638       1.54118123       8.06377572    -154.26967017
C        5.45016570       3.56748101       7.09899400    -155.19259827
C        2.78977038       1.73164003       5.27363152    -149.05112517
C        8.75491311       0.79869217       4.54685320    -154.53770655
C        8.47936465       7.88494024       4.70373872    -155.35504351
C        9.30866176       2.56631073       6.18507450    -153.84932242
C        9.84767977       0.61481486       6.34810461    -154.00067897
C        7.62192628       2.34669436       3.53911779    -150.01474184
C        0.88437760       9.24836072       2.51279676    -151.34615596
C        7.91413286       5.40317013       6.97109083    -154.00229678
C        4.36078674       5.48649586       4.55563786    -155.47143385
C        1.67124553       5.90440945       3.16422798    -154.30414343
C        7.69931768      10.92183745      11.01784952    -154.38341607
C        6.41553151       8.91233599      11.59632838    -155.24140087
C        8.11056102      10.28831432       3.35556290    -153.52071552
C        3.21086141       9.72343298      10.91818107    -153.53727323
C        3.44606120       2.21089434       4.64710574    -154.88230196
C       11.28170457       8.62304983       2.10129643    -151.69624358
C        5.48500059       1.29036299       4.57055541    -153.04917464
C        3.17248695       2.16692434       9.59161643    -153.94735627
C        0.00644891       1.13461526       5.89796114    -153.25252257
C        7.85858628       1.26827285       7.24628883    -153.70076141
C        5.96196529       1.18648912       7.12651614    -154.06731369
C        9.73148168      10.28539389       2.04007253    -154.52727760
C        0.27802147       8.14951956       0.87408133    -154.49126903
C        0.32166322       9.37424295       1.76722255    -151.82922127
C        4.03737827      10.90271447       4.09162819    -153.19233753
C       10.86034487      10.44851745       2.89436852    -157.36945204
C        8.91886607       3.37331911       9.01930552    -139.94243640
C        7.17143236       9.98657544       4.01901460    -155.35192348
C        3.92268713      10.10606777      10.17331945    -151.67102045
C        0.90036170       2.95919040       7.36406395    -154.66522329
C        3.82113792       8.35018818       9.46029051    -153.73670584
C       10.06548547       3.26977233       5.58743761    -156.15878140
C        4.64558711       4.94591250       6.93994736    -155.26029146
C        2.41509084       9.81145475       3.00306694    -152.23818304
C        4.31269309       1.76791177       1.52383388    -154.97377177
C        2.20561421       2.59180025       4.30436402    -154.58700436
C       11.46044660       5.38257526      10.99644861    -151.52571417
200
Lattice="11.681721770322822 0.0 0.0 0.0 11.681721770322822 0.0 0.0 0.0 11.681721770322822" Properties=species:S:1:pos:R:3:gap17_energy:R:1 anneal_T=3100 density=2.5 run_id=302 time=1 pbc="T T T"
C        4.86494649       9.52326668       2.67858376    -155.38160658
C        0.91797072       6.81417026      10.99463794    -155.17773807
C        0.95927028       2.31103006       9.25249605    -154.80557743
C        6.86835009       4.67119345       1.08007097    -156.37643543
C        3.56384800       7.18208609      11.01589867    -155.43546035
C        8.20223917       7.93867616       4.06055481    -156.33824279
C        9.78371066       5.01286045       4.18486001    -157.49010490
C        4.42147328       6.98721161       7.61334021    -155.11166533
C        0.76987336       7.25264369       7.20881387    -154.77353830
C        3.45268473       2.77061236       8.66852678    -155.79632414
C        8.22283404       3.73694775       7.47422259    -155.13391891
C        9.21108434       1.37067482       9.44505755    -155.94992919
C       10.40724593       0.03885014       8.64385498    -155.67023809
C        3.97707722       3.38717364       2.12932088    -155.66946538
C       11.38052026       3.63108799       8.49124497    -155.23765241
C        5.18438317       2.43109480       6.91292754    -157.68094955
C        6.52968529       5.52336337       8.76106938    -155.77212807
C       11.33873474       6.63519460       2.64978831    -153.49081030
C        1.77711697      11.50446332       6.34805788    -156.91217667
C        9.76038226       8.97194782       1.49401044    -156.50010010
C        7.03241987       3.84610176       5.96302833    -156.59890995
C        5.13725910       2.24668714       5.52357364    -155.50472367
C        7.76618386       7.46108065       6.97230573    -155.96632933
C        8.03154585       2.27277242       9.81098748    -156.50021986
C       10.28850122       4.80200537       1.56689270    -154.01620922
C        5.99758286      10.45439335      10.84549740    -154.89372803
C        1.30910047       1.35663339       5.01493979    -156.62339517
C        8.26117346       6.92778669       0.46739503    -156.02423361
C        4.36330999      11.66756352       7.59631994    -155.22124329
C        1.35089767       4.43947481      10.67086734    -155.99268771
C        7.83432334      11.19495611       1.92609397    -155.74491867
C       10.41736230       1.79949915       6.58231145    -155.30822580
C        5.03371232       9.38906706      11.57483402    -154.13802534
C       11.32184297       7.33942720      10.76342162    -154.66632462
C        8.90514005       9.93074849       4.99704339    -157.53584423
C        2.38567627       2.02869453       4.15434735    -155.88898610
C        6.53841154       1.06841261      10.40334423    -156.27041727
C        2.50116177       0.65322903       6.94492377    -154.93146026
C        7.61400607       5.75834120       3.48197081    -157.32246161
C        6.59659819       2.91589793       5.15276075    -156.61605332
C        8.73821993      10.29138661       1.52184799    -158.12433289
C        1.65968062       7.91196006       5.38954925    -156.35545571
C        0.99909911       3.50478521       1.96380257    -154.81036060
C        8.37649541       2.14360763       0.87049504    -155.92311541
C       10.33139651       1.26678927       4.06183980    -157.09865457
C       10.38649919       9.91549217       0.54061723    -157.50577717
C        8.34845928      10.98955639       4.41409043    -154.23200089
C        5.40472380       6.19359047       9.23900366    -155.23852651
C        6.65321950       7.10274383       7.44705090    -155.25088581
C       11.06202979       4.32247069       0.66431966    -156.57997632
C       10.54503183       8.78869665       6.99239829    -155.56270126
C        3.80762217       1.52610013       9.63698824    -155.03557515
C        7.06620341       3.10887998       0.28821962    -154.93299780
C        4.00285878       4.53933017      11.38768115    -156.69957994
C        2.39231148       4.90562224       0.14628319    -155.23026241
C        7.66854803       7.18744800       1.73278484    -156.48975564
C        1.06560900       6.25074914       8.40231202    -155.17543808
C        4.75311736       9.94967288       5.12336953    -154.81655401
C        4.42570206       5.01916858       6.92017020    -153.73609418
C        3.72634075       5.70642763       9.49121203    -156.90665677
C        0.86729892       3.06506184      10.79458846    -156.67837206
C        9.10288824       6.46686099       9.73754450    -157.31247984
C        4.70216169       0.33665320       9.98208966    -156.78854733
C       11.11429382       0.49308898       2.96466912    -156.02797029
C        2.60864529       9.12966274       5.56635211    -156.96619851
C        4.71817733      10.62992291       9.63732701    -156.58132506
C        1.99794824       6.77998954       3.60418498    -154.85920258
C        7.20164129       3.47256702       3.93494125    -155.40389094
C       10.50956613       0.29973429       5.03590848    -155.62449420
C        1.72188579       3.69804762       8.71818577    -155.15443692
C        7.54129903       6.42825290       6.25565546    -155.47515613
C        9.65273520       9.61406870       2.66005655    -154.26192865
C       11.07067427       4.75741624       4.00526522    -154.80801428
C        6.40932851       7.40969276       2.27260888    -156.22163274
C        6.42192141      10.79177316       2.56527106    -155.45331911
C        0.31866919      11.19980402       2.90187987    -155.62219841
C        5.24346932       5.54015000       6.02754648    -157.00551969
C        0.25002623      10.76765041       8.38292036    -154.13320203
C        6.21096119       2.97422477      11.14532047    -155.32060164
C        3.83945486       0.29612464       4.81373382    -155.72588720
C       10.23823477       8.21699318       5.27787199    -154.17844789
C        6.76886854       0.05300324       6.97632424    -154.75358920
C        8.21890899       3.83533121       9.18475374    -155.61847619
C        6.87346668       8.42554696       5.17897453    -154.89717571
C       10.11628928       7.44284548       0.74322852    -155.02338442
C        8.19644503       7.64788306      10.35588139    -154.84590693
C        6.70674515       5.39755123       5.97801598    -157.02176336
C       11.36716805      10.48390138       9.80438731    -156.09594512
C        4.96044456       1.15913052       4.96066651    -154.95172157
C        8.44851323       4.88099717       4.14154418    -155.61215814
C        4.43278119       1.70382585       2.60671780    -154.91898312
C        6.51572563       0.70598602       5.85000767    -156.76378352
C        1.82755864       8.67999823       9.84715409    -155.43492672
C        7.14662038       9.01408379       9.09828564    -155.49338705
C        5.45858822       7.97627962       4.84540296    -157.33575757
C        3.91088859      11.02802430       1.30014059    -154.42036907
C        1.67269406       3.68985873       3.03803034    -156.84066154
C        1.75064619      10.94745547       1.69536828    -156.35567641
C        4.66838983      10.75419306       3.04031995    -156.34047405
C        9.76021872       9.98046590       7.26181384    -155.90067748
C        3.32543574       1.10292859       3.61954645    -157.76144419
C        6.66254151      10.79977514       0.98266527    -156.00876538
C        3.64243094       1.69657150       6.49161456    -154.34738957
C        2.63865563       7.74100975       2.62886635    -155.07993326
C        9.58603257      11.03974107       5.55123596    -155.97346614
C        3.07453572       4.62430302       4.67301580    -156.06771729
C        6.49535271       1.60137715       1.54611092    -154.11396235
C        1.47840366       5.69925505       0.30765567    -156.34098450
C        1.77671979       9.61640504      10.80074472    -157.00609036
C       11.01984710       6.32134178       1.27831913    -158.46591295
C        0.54858767       8.30306411       8.39591043    -155.81963983
C        8.77103388       8.93182110       9.14657788    -157.53052582
C        7.66520706       1.02112617       5.21453369    -155.31106388
C       10.04225053       3.01043811       5.86528737    -157.12263229
C        1.23413886      10.42077336       4.30763490    -156.21746007
C        3.52856920       7.42185343       9.85978203    -156.27693060
C        5.85497241       0.07384892       2.01825107    -154.87258431
C        4.93564427       7.11568718       1.04302940    -152.93949850
C        5.29072188       1.73738743      10.51124829    -155.88702226
C       10.39898695       5.65499301      10.41444187    -156.08069645
C        0.70438563       7.65884052       9.56664091    -156.42250030
C        6.73476960       3.47047599       7.28355352    -156.45837185
C        4.90021360      10.58365161       8.40823465    -154.96340097
C        0.82995946      11.59159729       5.46851769    -156.30552280
C        3.38316681       3.74261338       3.33907999    -156.95442036
C        2.87747675       9.95427548       4.38879951    -156.41843343
C        8.04687227       1.32601560       3.96518523    -156.70082794
C        0.85588237      11.16023803       9.71184471    -156.60376682
C        2.02292376      11.22963914      10.47954410    -156.73858616
C        3.32091491      11.37368645      10.25516159    -155.54913281
C        3.82661665       7.79793478       8.45355973    -156.09591361
C        8.39019807      10.52871247       9.52679456    -155.76069889
C        5.61948058       1.23119507       7.47658229    -156.24645547
C        4.55285761       7.75272652       6.11300996    -155.49977153
C        4.66164948       3.20496214       7.91724020    -155.22827228
C        4.66775902       8.92517420       6.29963714    -154.83774291
C       10.02143370       5.28358435       6.61353669    -157.99805810
C        9.69411186       8.06190665       9.48420300    -154.80935941
C        8.58954665      11.11679371      10.97886762    -156.13594153
C        7.45473747       2.41340867       3.23411972    -157.10983211
C        9.44205535      10.88277377       8.18077985    -157.02025393
C        3.47455291       0.52046393       2.17155031    -155.84628910
C        8.79145353       5.37381397       9.17202067    -154.91440854
C        4.38136993       4.49578071       9.83519201    -155.35445796
C        7.31050326       1.20973574       9.26240215    -156.98076599
C        0.41005180       2.48791469       4.72241780    -157.50968188
C       10.92445416       8.92416957       8.31710554    -155.11454148
C        2.51186222       9.17412338       3.34483908    -156.31809803
C        0.49928613       0.65937946      11.65813637    -154.71916677
C        7.79417326       1.28523471      11.46162645    -155.69296309
C        8.30642845       2.07675313       2.16611830    -157.01956638
C        3.91390247       3.43464815       4.70401909    -155.59442232
C        2.40297690       5.27759162       8.76855736    -155.89321696
C        1.25460524       6.61136389       4.53483271    -157.28007136
C        9.28407174      10.71764095       0.27419221    -156.98299303
C        8.58828503       8.83360119       7.61616719    -155.51032286
C       11.29885334       2.27468823       1.92464543    -154.25178250
C        6.79042132       5.44997879       0.07691105    -155.37149811
C        9.42165906       0.99536797       7.75324051    -155.52603747
C        4.60793692       4.58798454       5.25548981    -156.73283157
C        2.86151952      10.08924610       6.78315529    -155.29910585
C       11.52113314       9.34697781      10.77219460    -156.15591899
C        6.52842367       5.41508549       2.48137293    -156.05861940
C       11.67032041       5.37938615       0.54735759    -156.06599044
C        6.24698762       9.15327150       1.36600214    -155.08822037
C        5.29455348       6.64278772       2.18765940    -156.69230281
C        1.67346505       4.62849675       4.94919506    -157.09031410
C        0.91116846       8.62161298       7.42827837    -153.23417160
C        1.09890774       3.57460686       4.35517951    -156.87282018
C        0.00163966       2.98686439       0.42865611    -156.20749588
C       10.70795681       5.71792245       3.03555381    -157.30196060
C        4.88208357      11.10647875       4.51143422    -157.02107416
C        5.55319849       7.37539522       3.39378549    -157.24706810
C        1.80234949       0.05346747       0.69982392    -155.37778054
C        8.68700726       0.99746951       2.76710784    -154.03304593
C        7.27257271       6.54182260      11.26470767    -156.35966391
C        9.37050480       8.80750422       4.44594649    -157.69320610
C        4.56096472       8.30790034       3.65752372    -155.60202224
C        2.29708209       8.90663531       8.04710590    -155.50191518
C        2.95742646       7.80471018       0.45549486    -155.74446242
C        4.92589003       3.80574141       0.76194498    -155.95293502
C        9.51352412       4.52756668       5.66778450    -156.13012004
C        6.35228666       4.13974520       8.71139869    -156.98257703
C        9.79661896       4.44178780       7.65568645    -155.01356175
C        6.98716488       0.75994857       7.96950423    -156.35687064
C        2.68860667       9.07977011       0.40754607    -156.56007989
C        0.73792151       9.00478514       5.11664086    -154.57185116
C        7.00557527       3.65307299       9.76886319    -156.36460735
C        9.17032682       0.91720674      10.82565015    -156.76808088
C       11.30190227       1.19375515       0.58338869    -156.96961136
C        9.75921409       1.12703383       0.72961231    -155.13765973
C        0.66777628       5.60250703       5.37792593    -155.85059174
C        0.20659943       9.75280083       0.31164264    -154.68293679
C        0.08389357       8.74939933       2.94358362    -152.84861665
C       11.25862149       4.90521338       9.39253653    -155.44569042
C        2.58095961       9.89599537       1.97375539    -156.83241658
C        6.26420648       8.25730681       8.56861301    -155.16984269
C       11.05210033       5.96578522       6.63154990    -154.00696384
C        8.37683418       6.99618317       3.11764127    -156.80663247
C       10.75699667       2.54989791       4.61916306    -156.83752092
200
Lattice="11.681721770322822 0.0 0.0 0.0 11.681721770322822 0.0 0.0 0.0 11.681721770322822" Properties=species:S:1:pos:R:3:gap17_energy:R:1 anneal_T=3100 density=2.5 run_id=302 time=2 pbc="T T T"
C        5.70149794       4.92966322       7.84054970    -155.32275770
C        4.75219451       1.74341520       9.72286057    -156.75759428
C        3.41260474       9.43544349       3.80792589    -155.21846893
C        3.76976171       9.89009610       8.99555658    -154.97488272
C        7.13384058       2.36360949       7.10712448    -155.35786793
C        4.75356127       8.75062592       1.98541375    -156.50380576
C        7.07498806       2.73928198      11.08211067    -155.44123210
C        0.67028551       7.93841916       2.82161476    -155.21848437
C        3.74890983       3.50970322       6.25322566    -155.29495860
C        6.11360573       6.97072870       8.77842841    -156.51905735
C        5.80797684       8.23450408       4.64656838    -156.26616202
C        1.15540639      11.16040157       2.80169742    -155.10782465
C        2.21171206       4.34798357       2.44901456    -155.55948036
C        2.99981942       0.65821946       1.03513372    -155.03503240