200
Lattice="10.758957740055605 0.0 0.0 0.0 10.758957740055605 0.0 0.0 0.0 10.758957740055605" Properties=species:S:1:pos:R:3:gap17_energy:R:1 anneal_T=3800 density=3.2 run_id=491 time=0 pbc="T T T"
C       10.62771997       8.12511109       7.03660582    -147.29820794
C        9.14927780       9.16387770       4.48282733    -151.14938274
C       10.11060143       7.83812665       9.83645243    -147.06353300
C        7.02932200       7.02704110       4.79801100    -151.37271656
C        9.65610002       9.91436880       5.94033258    -152.21214394
C        5.74763964       7.79050750       4.92829122    -149.91665386
C        3.69547605       8.78325805       7.71388221    -155.42255517
C        7.39653599       7.97004223       0.34326777    -149.50139185
C        0.11500895       8.74992680       0.46694845    -151.45053392
C        8.23265763      10.52128160       2.70866444    -154.62119567
C        6.16225760       3.51899686       4.18104933    -155.38395734
C        4.43056032       3.08040795       7.81105711    -153.25272595
C        7.57531759       0.75555857       6.14114852    -150.60016424
C        9.08278744       6.64418359       6.98508117    -146.27661407
C        0.49972992       0.04082497       4.93242266    -154.81113002
C        1.46167972      10.01894587       9.32709109    -151.57243945
C        9.85301046       0.27870434       4.57326713    -152.45136962
C        0.12010655       4.31474014       8.69819773    -153.88929628
C        2.43875447       6.23313761       2.09159518    -150.99186726
C        4.19775799       7.53908142       1.49496794    -143.77831468
C        3.08197876       5.74563848       4.98762687    -152.30912598
C        8.79901993      10.29391255       4.33511760    -151.31335463
C        3.49215326       4.34577973       5.85296984    -155.90979471
C        9.99296298       6.85585533       0.98775301    -153.72395947
C        4.72383874       0.52753752       0.84859881    -154.75781130
C        4.40499703       4.15684167       6.97321404    -148.14993689
C        1.81569247       3.94009171       5.66462353    -155.48442661
C        9.04078447       0.07290560       1.70694092    -151.18862607
C        2.08002930       1.46343343       0.81794869    -153.44719187
C        4.17592806       9.71774885       1.46159365    -155.22026006
C        1.06941996       4.60300489      10.00674521    -153.68364518
C        6.32680510       6.02953510       7.13567430    -154.41931182
C        4.84907301       1.19203872       4.18896792    -152.01032135
C        3.44961234       3.36879105       4.72048195    -153.79486973
C        5.04466011       3.81739655       5.05791514    -154.47604543
C       10.02535821       2.12847689       8.35661158    -155.00004942
C        6.89950442      10.46417306       5.38626777    -153.23120896
C        8.30883105       3.72141589       3.13136237    -152.79476471
C        0.01976808       7.63367418       2.64222788    -144.75234298
C        0.52119619       7.76222220       7.39421206    -144.13449270
C        8.34639057       0.52092076      10.24829457    -155.56274648
C        6.33942536       9.32734931       5.24513176    -153.26460341
C        2.25954251       5.89144387       7.80047030    -153.62894693
C        5.40896917       7.18747868       7.39628853    -155.24609533
C        5.08559794       4.50193524       1.80621383    -154.37465311
C        9.74008444       0.75451818       7.55811402    -154.93104657
C        8.57785879       1.69634335       3.30358101    -153.22365231
C        4.83061064       1.12608631       8.53392997    -153.61912891
C        2.82025635       5.67799691       0.46941333    -154.43850911
C        0.99942756       2.70891190       4.01286530    -153.21587661
C        6.39026143       2.22666313       6.10669834    -152.19704981
C        1.71497786       4.65114047       3.31200527    -154.56677002
C        8.43089143       0.72371528       8.09067167    -153.91479117
C       10.54952387      10.66860401       0.10790159    -151.27086126
C        8.14758655       3.82540122      10.01925788    -154.53094954
C        1.10750559       2.58696987       5.81660456    -154.63223524
C        8.15219139       8.49431548      10.73353432    -148.47347534
C       10.74486351       6.67179108       5.41044315    -154.40805746
C        8.06099846       0.30527789       3.83557919    -153.18056128
C       10.67949208       9.87932687       7.56912043    -152.30673643
C        9.29714891       7.20014198       8.72002766    -152.04397584
C       10.29277210       4.23984703      10.03425586    -157.14013401
C        5.17816801      10.71641682       5.11600275    -154.42686831
C        1.67253378       3.55756773       7.82507604    -150.51145304
C        8.65530177       1.68956521       9.67618699    -154.55001222
C        8.52652780       8.36901666       6.20319543    -152.90052384
C        4.96507609       3.24802175       3.61683882    -153.49359437
C       10.72805801       5.67983669       2.04938779    -142.50599076
C        2.22510309       5.87318592       3.10997357    -154.68145967
C        9.19273323       5.70623918       2.33705004    -153.94523681
C        6.97038443      10.15632700       8.43752971    -154.00094611
C        7.07576842       9.56558491       6.84762473    -154.44579688
C        6.49434359       7.72217736       3.81221074    -147.90499024
C        9.08733848       8.11711718      10.71987045    -150.12032882
C        0.75792231       8.41440871       5.23908523    -154.39491237
C        1.45058724       8.80085971       6.06832114    -153.67459410
C        5.03377204       3.61119037       7.08856082    -147.12734061
C       10.46014921       3.31875114       5.07464532    -154.88684247
C        4.71316586       5.23262986       2.66717790    -156.05392065
C        2.23630316       9.30942488       9.48237513    -152.66195576
C        2.67895896      10.34945029       9.68112535    -151.83222475
C        6.62668953       0.32641279       3.70252316    -154.27239591
C        7.55395030       9.12808265       4.01821250    -151.91062523
C        7.79049675       4.56994261       5.05895876    -151.43188816
C        3.92624493       7.93093342       5.94947769    -152.37720166
C        6.55384063       2.21830342       2.36641124    -154.51473529
C        9.43152829       6.59662900       3.05741606    -153.56129829
C        1.27161197       6.01979824       2.14363626    -154.34408469
C        5.79672201       5.64561245      10.09549585    -153.57238856
C        4.90606321       0.08720705       7.73332364    -154.72182494
C        6.52833114       0.82478278       7.04043601    -128.16281832
C        8.81034911       4.57204061       3.34218415    -153.21116958
C       10.51731155       2.40672505       1.48278880    -152.48004718
C        5.23520125       7.35388748       9.20350294    -155.54082122
C        2.79411208       3.03825435       5.88294430    -155.40476233
C        7.39797769       9.31121087      10.74432556    -151.10781516
C        8.72056561       5.20601219       8.99132554    -155.56739912
C        5.74119503       3.56439966       9.67950075    -153.78277488
C        6.59599422       4.13270933       6.34746230    -153.23175562
C       10.11828332       8.30740011      10.60842916    -146.59147312
C        3.33736414       7.71364551       0.23538017    -154.30832609
C        8.53828734      10.49392158       5.30567242    -149.81423804
C        7.64847850       2.05763991       7.07654307    -154.81405066
C        4.33690359       9.61572165       4.02770190    -155.40567101
C        7.82617345       8.45825146       7.65536424    -154.86468704
C        7.31677984       0.75585229       2.69477463    -153.79180253
C        7.03365786       1.08685915       6.94091565    -128.07054589
C        4.44867840       8.94511581       6.65057441    -154.34430679
C        9.36527463       3.95133482       0.20877542    -153.24221748
C        3.46198514       2.34273077       8.92510415    -154.92315532
C       10.03968914       8.95540138       6.25555928    -152.79358610
C        6.64899285       6.11912494       3.47880140    -153.23990662
C        5.07094424      10.24367898       3.08104273    -153.52407832
C        6.27370964       9.23537098       2.11660976    -153.87607047
C        9.75728802       7.51656292       5.83669154    -154.64349656
C        8.35936588       2.35248915       5.98691887    -153.03378351
C        1.61844849       9.14399515       1.11641401    -156.82937911
C        1.74025066       9.12937372       3.61250296    -151.88208891
C        7.41302947       2.82616302       8.49226052    -153.61729576
C       10.72535752       1.27027786       8.06196677    -155.34005265
C        8.22422261       4.65943562       7.75838126    -155.46522402
C        7.83004667       8.00895738       1.47625811    -151.05837255
C        1.64289285      10.16609613       5.00832710    -157.41713939
C        8.45202202      10.30131471       0.38337609    -156.25940783
C        0.79869123       6.95263215       3.20651369    -154.06247746
C        6.68987689       8.15960431       4.65332454    -147.11249040
C       10.56981526       5.49753691       2.74124257    -141.91097919
C        8.20748167       3.30891745       7.47238664    -155.70159631
C        5.06770579       8.60224935       4.80436954    -151.20293491
C       10.21032621       9.78503537       3.71641298    -152.73661865
C        5.19339194       6.41971946       2.20537116    -155.22177153
C        4.05326519       3.11492269       1.62633481    -154.03484211
C        3.84179787       5.67442494       5.80719048    -152.50311142
C        3.05153091       5.60710614       3.96370762    -151.53188733
C        8.90939607       9.28600263       3.31710502    -152.11126760
C        2.02091959       1.47959339       6.18946700    -153.28687988
C        0.91846532       0.68782555       7.89214738    -151.98175717
C        9.17668086       9.42671904       9.55331969    -153.09304498
C        7.13803051       3.25189498       0.53799738    -154.62128826
C        2.12590550       1.58622542      10.24956413    -156.41678995
C        7.67478416       6.28628686       8.53599569    -153.13414246
C        4.02400082       0.31870185       4.37289230    -154.00727807
C        2.83750296       6.81787621       6.86932554    -156.86865534
C        9.47317622       9.76531420       7.28255559    -153.39775372
C        0.47016538       3.23709065       3.26979788    -153.52640762
C        8.95760696       5.17100255      10.19026075    -155.19526603
C        2.37430831       3.80158089       7.11688916    -153.60869223
C        2.48317821       8.64764139      10.51001698    -154.82681804
C        2.23177364       7.58890615       8.18181080    -153.05121177
C       10.06545684       9.91860783       2.68785662    -151.10641878
C        6.31407725       7.67878649       6.21725739    -153.31564797
C        4.00576439       1.08968876       2.09933087    -154.66736988
C       10.07243941       5.49615977       5.91564077    -154.02409911
C        0.72872895       6.43158659       8.61443925    -153.60195184
C       10.21826632       1.70188421       2.40613331    -155.06531354
C       10.05958245       5.02061383       0.28395149    -153.97892916
C        7.10271961       5.09589426       6.71001766    -155.52801146
C        2.69478539       3.52854006      10.36755762    -154.21481289
C        1.98910535       7.60646477       4.96935816    -153.84480182
C        8.73390671       6.48402575       9.19310979    -152.36627500
C        4.36850265       8.14474619       1.88154805    -143.09430966
C        2.30789327       4.45486480       0.81635313    -156.09839489
C        3.72916234       1.90033319      10.22131110    -154.80170259
C        8.62426218       2.14582033       2.17410563    -154.17150115
C        5.45167148       8.12557373      10.16043692    -153.36745535
C        5.79469933       1.50014300       4.31187825    -151.47987467
C        3.34489541      10.62169496       8.42051979    -154.52166613
C        1.34398748       4.84545800       4.73478060    -155.11206834
C        2.35585670      10.08304774       1.34595637    -153.37564292
C        3.04867978       8.56042928       9.23326222    -152.85461847
C        9.32229260       3.11740801       4.59677545    -153.54102899
C       10.03317997       6.95480546       7.16838153    -151.70997284
C        4.50418386       9.80706971       7.56285872    -155.21062859
C        3.23713369       8.05290773       3.25038872    -154.56329029
C        8.31530795       2.22496322       0.60387125    -155.09562560
C        6.81613326       4.34530633       4.95877135    -153.47613856
C        9.21073296       3.92591140       5.40619336    -153.84536911
C        2.52305090       1.13778130       5.34598623    -149.85718089
C        3.47093660       4.13621675       2.78925979    -154.15061926
C        0.65718942       5.55629158      10.25440566    -152.51827571
C        0.74498574      10.67508091      10.71800915    -152.79605132
C       10.12963402       7.71911106       2.21134238    -145.16730583
C        6.33144221       3.87532278       0.30320680    -153.39378704
C        9.20923747       0.25343478       9.02743260    -155.19097748
C        1.02996578       8.42350002       3.78367798    -153.15016653
C        2.25259222       0.35812805       6.05197828    -151.93409977
C        4.89854270       6.30503973       9.66324397    -154.95010182
C        2.98828975       7.54578425       5.67582360    -153.73676162
C        6.80364211       3.55713737       2.39216818    -155.63479234
C        9.44392261       0.63775659       2.47609881    -154.41473759
C        2.20397249       8.44089726       2.32861502    -156.19599214
C        8.26192200       6.57658506       7.31195982    -147.64216936
C        3.44441577       7.59755636       8.11614888    -153.50312506
C        1.76679300       5.93227412       6.77345247    -153.14610050
C       10.06194942       3.08232304       7.40194775    -154.45590569
C        6.01856096       6.15063793       4.66270635    -153.45264757
C        7.26677220       7.91707588       9.18932264    -154.15527955
C        1.15913783       8.65696941       9.34241185    -151.93589146
C        5.76006624       0.22635018       2.82240814    -152.19053035
C        4.54154972       0.95150286       6.21126465    -153.92823773
200
Lattice="10.758957740055605 0.0 0.0 0.0 10.758957740055605 0.0 0.0 0.0 10.758957740055605" Properties=species:S:1:pos:R:3:gap17_energy:R:1 anneal_T=3800 density=3.2 run_id=491 time=1 pbc="T T T"
C        8.25479957       6.21085581       2.23274195    -156.19563124
C        5.29348252       8.34412043       2.01411992    -154.34735131
C        0.77498817       4.62381271       7.99253921    -155.72631410
C        7.50939746       6.31205457       6.61992214    -154.55416535
C        8.47525061       4.40669695       0.63364882    -155.20957371
C        7.51441113       6.20823063      10.43767374    -155.49034171
C        6.47364335       7.11197232       1.76057433    -154.37917945
C        2.54530043      10.36318948       9.96717376    -155.71618175
C        8.02644069       5.41652196       3.19082713    -155.97455887
C        0.38991539       2.55066915       3.44395313    -155.78245998
C        9.66596598       3.69252809       7.95766943    -156.92668571
C        9.40063933       2.24866520       7.88293771    -155.11468675
C        4.22686097       0.10675006       2.66234713    -155.27402566
C        4.85104190       9.47140099       5.92508713    -156.76802749
C        7.08448318       3.89970258       5.05371915    -156.10352833
C        9.21028109       4.22868999       6.85145491    -155.46982228
C        7.77106607       6.70839305       1.01091059    -156.67706676
C        9.23190659       8.70860165       9.78568090    -156.13247186
C       10.48684218       6.88352737       7.92118581    -156.90045471
C        0.51168420       9.36122926       1.16664758    -155.74252051
C        1.69911916       9.63294674       2.24298447    -156.16956441
C        2.27122674       8.64971787       2.64833897    -156.27185370
C        2.77860843       9.39225810       0.09050930    -155.12936217
C        6.54484614       5.80719048       3.18451162    -155.26939439
C        6.12530058       0.31748824       4.28530363    -156.37427417
C        7.32024422       8.05844859       0.55282215    -155.83228256
C        6.91497580       5.28122807       4.81856061    -155.65266754
C        2.27419621       9.18551397       3.84728494    -156.12655930
C        1.92446553       8.28365509       5.11821910    -155.58053973
C        1.91273827       5.94458237       3.17402164    -155.88366040
C        4.22686097       2.38440021       7.12126806    -157.84488094
C        0.40627976       4.87657291       6.31225899    -156.32888471
C        2.54461185       3.73190588       9.47746904    -155.45474061
C        8.88500552       3.72091022      10.35989724    -156.27428702
C        3.66863245       9.20819385       3.76397833    -155.86678553
C        0.42410951       8.44868674       7.32129860    -155.86038904
C        4.71487653       8.36981283       4.83450538    -155.72575175
C        9.18166226       2.46371525       4.93182016    -156.20710646
C        4.29229695      10.67443537       4.12088523    -155.82904851
C        8.57552410       7.67386964       3.31709426    -154.12363688
C        8.92979506       9.16260814       7.50710580    -155.45280009
C        8.04192283       9.10925447       2.47813225    -156.25414426
C        2.89122244       4.55586990       5.62535333    -154.35893409
C        9.21481061       0.01090474       8.68098340    -156.59756056
C        3.17238628       2.38514258       9.75917083    -156.47805678
C        8.96314783       1.20365840       1.05540749    -156.62607193
C        0.70014993       4.56812435       1.88211827    -155.86820493
C        9.91128098       3.26196536       2.99929617    -156.94109172
C        1.25524760       0.22409080       4.60029363    -155.83728992
C        7.32789384       2.94838478       3.56115046    -155.20268695
C        5.32960034       3.39036276       6.36553735    -155.69986236
C        7.28586935       2.75974797       8.62339070    -155.73444479
C        0.19076708       0.44846133       5.80871825    -157.47815953
C        1.85146600       3.41883097       6.96208928    -156.71534267
C        1.13590924       3.97076550       5.76298192    -155.93872035
C        9.04572283       7.13063911       5.78767373    -154.94989638
C        4.60215493       3.86135766       2.38628303    -155.41465533
C        7.63201730       9.35513969       5.29927084    -156.31023383
C        8.28498920       2.03272216       9.93679047    -156.19048530
C       10.43735098       8.75985732       9.07945216    -156.15215968
C       10.07969094       4.33965788       9.19648810    -156.15730380
C        5.57140792       5.77323521       6.69386846    -155.42961231
C        3.14297129       2.83071406       6.52969752    -155.45941226
C        3.48706428       0.74431115       5.36945152    -156.04052464
C        5.69896612       7.47717438       9.68591309    -157.25772547
C        7.03552992       2.76645080       1.76242487    -155.11330362
C        3.73630629       4.65410994       4.74609903    -156.99695844
C        6.03495761       3.85092147       2.10689442    -155.11463600
C        8.77126182       1.16825067       4.53765498    -155.58771084
C        5.84823590       4.86049903       9.78700426    -155.44068196
C        1.45987222      10.46912218       6.17871880    -156.92050885
C        8.40597368      10.65168017       5.25319022    -157.19870667
C       10.15301324       6.47596729       1.01873558    -155.61923285
C        1.60583900       4.76405573       2.77056073    -156.90585943
C       10.62577260       6.26785677       6.49931423    -155.55650790
C        3.35182418      10.64432105       8.04231015    -156.28783421
C        1.37529605       4.84991221       0.83935363    -157.10278417
C       10.36153260       0.84566053       0.93312548    -155.56123360
C        0.56778140      10.39624100       0.33711150    -156.47373365
C        7.43941044      10.35154829      10.30129320    -156.83050022
C       10.15117346       7.84488328       1.67046806    -155.53295957
C        1.17938619       8.93202216       5.89810367    -156.81817484
C        2.63131829       0.42225789       6.71117962    -156.34732886
C        5.48116178       8.74730162      10.37827354    -155.71356095
C        4.09025448       1.49674316       1.10035088    -156.43169659
C        7.59654501       8.74728010       7.76116783    -156.75079443
C        0.70690656       6.23788231       9.00489258    -155.66785998
C        2.33551151       8.58417430       8.74739845    -154.46218965
C        3.00392252       6.30528718       1.48868471    -155.65795398
C        5.39696218       0.92852710       9.06259287    -155.32359544
C        8.34069909       5.87109869       7.98925773    -154.25453175
C        5.15930756       9.56073262       1.68443318    -156.00861919
C        4.33492394       6.57937163       3.33908557    -154.96513152
C        8.22072595       2.18008761       6.49515051    -155.25314131
C       10.07606517       2.78352527       0.53572831    -155.88822994
C        4.84596367       1.01253304       6.57941467    -155.66538107
C        1.50518895       2.18186283       2.62068844    -157.15429143
C        5.44574329       1.15723349       3.24146955    -155.91916704
C        5.24182876       4.59877662       7.33453212    -157.83037039
C        3.47703693       8.56032169       6.32674055    -155.14467451
C        4.73651280       4.26740072       8.69209740    -157.21481506
C        9.06361497       6.82438538       8.49017329    -157.26206135
C        0.53094273       2.20278901       0.20375314    -156.26658040
C        0.45565800       3.93681023       0.17976067    -154.68269642
C        4.79679524       9.85455975       8.85587026    -155.64666151
C        1.46132468       7.96160721       0.28588272    -155.55001477
C        5.10532987       3.36044210       0.36303413    -155.35610743
C        2.95479712       3.20756807       3.91308672    -156.84104990
C        0.39411138      10.13151684       4.27421114    -156.91335247
C        9.95043282       9.29920387       6.70893100    -156.33549847
C        4.75041337       0.01276701       5.82051007    -156.61002036
C        7.69110549       0.32685068       7.97668051    -154.51787535
C        1.95575258       7.41368577       2.83036977    -154.53660569
C        8.86967400       4.75666432       4.25486654    -156.25873103
C        2.93706636       2.05717727       4.66438474    -155.99693147
C        4.74272072       2.79514494       8.65563530    -156.49372207
C        0.03165920      10.13332435       2.91257897    -154.22136669
C        7.75821987       7.59127313       8.56275321    -155.66636752
C        5.12155438       6.80583693       6.98303697    -155.12720591
C        3.31288751       5.13352910       8.86095925    -155.38047870
C        8.66284380      10.06370313       9.84641522    -155.91623936
C        6.25269740       9.70409573       8.36029115    -155.03908256
C        7.20689860       8.72617102       6.24480032    -154.84202350
C        7.05281957       9.11860401       3.94185618    -156.03952123
C        8.59337321       5.68504403       5.38840880    -155.78045500
C        9.43659576       8.55285497       2.89503111    -156.02252245
C        2.37054268       3.53699660       2.86758501    -155.70007999
C        5.47371658       0.57955493       0.65923792    -154.85455188
C        4.17348578       3.36160407       3.66186506    -156.73495167
C       10.12867648       3.70738621       1.67993594    -156.55380099
C        3.62766233       0.69977660       9.18351280    -155.08160325
C        8.26925961       1.83354158       7.72459813    -157.13234578
C        5.37547654       2.40144240       3.43018167    -154.99079245
C        2.99415339       1.60947552       1.85587717    -154.48613210
C        0.93803157       1.47386962       1.49847536    -155.24482180
C        8.81351224       2.47647537       3.57535228    -157.68937378
C        7.91168565       8.44091878       9.40927877    -155.73013054
C        9.42703105       1.31872545       9.38149914    -156.54250794
C        7.71162283       1.94769412       0.58053077    -156.26855505
C        6.31188242       6.61608120       4.32007658    -155.58015873
C        6.84808736       6.56805321       9.45959841    -155.80625545
C        3.42588884       7.33332711       8.94467470    -156.10351374
C        6.69553610      10.39285193       3.15316002    -155.97890494
C        1.21178141       8.73116318       8.31609335    -156.30847250
C        5.21840651       7.21068575       0.03285280    -154.78529136
C        4.43006540       6.25550549       1.75387150    -156.44652826
C        3.52858309       6.05379655       4.28649787    -157.28413840
C        0.15440826      10.32978292       9.48047079    -155.42999943
C        4.95255267       4.99181210       1.43820368    -156.09841128
C        2.17399804       9.88047808       8.66426398    -157.08693912
C        5.97255566       2.16648828       9.21982428    -157.28103241
C       10.17661839       4.12001376       4.35717346    -154.85764345
C        6.49002925       4.84651238       8.19524874    -155.12857571
C        0.26745693       1.44408883       9.30457259    -154.83587448
C        2.63015633      10.63553098       2.50491130    -155.16799650
C        6.18391538       5.29400971       0.31651670    -155.25325723
C        4.15788529       9.94263258      10.29854966    -154.96557593
C        7.10386006      10.12605129       1.82431039    -155.63588336
C        5.04644609       8.95883348       7.45959424    -155.03517148
C        9.34144354       0.18087207       7.43581694    -154.70874246
C        9.30206575       6.64343047      10.16264251    -155.95986659
C        9.16384542       1.15169263       2.79263811    -154.23795447
C        2.96370553       6.27859421       8.50110439    -156.09254783
C        6.07219436       0.88892553       7.61460930    -155.55663794
C        7.67776439       9.24539832       1.03486541    -156.10247172
C        7.86409878       3.65104155       6.23427806    -157.40423576
C        9.44928057       3.59495510       5.58138147    -155.22512678
C        0.92085489       1.35015237       7.14627187    -153.63897453
C        0.50585176       7.80986287       9.82281007    -156.64964252
C        4.63566909      10.08876074       0.51774472    -155.05574564
C       10.30206784       8.01281985       4.63390462    -153.87315608
C        9.45502586       5.38878537       1.40079478    -156.28609225
C        0.21466272       2.74533097       4.70867937    -156.29689096
C        1.36572058       6.19446992       6.01823819    -156.38541585
C        0.93930973       0.35291964       9.00546281    -155.77721490
C        7.59780381       4.32910334       7.41753748    -155.20837172
C        1.84193357       1.24585503      10.11365697    -154.67447429
C        3.89346239       2.62718685       0.43346227    -156.81573652
C        7.29398161       0.86259191       5.27116844    -154.94018217
C        5.14959222       3.58497079       4.68902276    -154.76580698
C        4.73276868       7.16621898       8.63201938    -155.79642027
C        2.98360961       7.96086484      10.72130139    -156.50568949
C        2.80243952       6.04911640       6.88821827    -155.92885496
C        3.54357032       7.26506153       7.00047724    -157.16133289
C        0.26416039       1.88938057       5.75647275    -155.14812655
C        1.84248227       5.86717167       0.49621281    -154.12129756
C        6.28044475       7.87560010       4.81973333    -156.78747474
C        3.87539810       7.14103226       0.37356285    -156.75270942
C        2.21713070       6.51394641       4.94225635    -155.83489434
C        7.97018210       0.30271188       0.88531052    -155.95329155
C        6.88327991       0.82975234      10.02700433    -153.89037827
C        9.79595571       7.53841437       0.24005064    -156.16370891
C        7.47969197       7.73982205       5.59463651    -156.26099942
C        5.94000981       2.16362640       0.09227087    -155.69045354
C        1.96132572       4.02031050       8.08884264    -157.28288383
C       10.15767187       5.61619746       9.57953927    -156.83342047
C        1.97650661       1.28647009       3.86018493    -156.27029696
C       10.61558387       9.17579863       5.14787079    -157.82143629
C        9.67321752      10.64180345       5.84782706    -156.32687657
C        6.87130519       8.90188632      10.27252374    -156.76421147
200
Lattice="10.758957740055605 0.0 0.0 0.0 10.758957740055605 0.0 0.0 0.0 10.758957740055605" Properties=species:S:1:pos:R:3:gap17_energy:R:1 anneal_T=3800 density=3.2 run_id=491 time=2 pbc="T T T"
C        5.05873282       6.99157958       0.95216238    -155.91054818
C        3.02599990       7.06860296       7.40640195    -156.15214397
C        4.11235338       9.62052014       4.57564486    -156.14720424
C        9.46456905       1.04452696       1.02716845    -157.35915932
C        5.02440099       7.89830150       8.65653905    -156.88004933
C        2.38365785       7.60302191       8.39508562    -155.49798794
C        9.29698753       6.56478249       8.44225289    -155.65574996
C        3.39367652       1.25963725       4.43102295    -156.22431224
C        3.98856081       3.47545536       6.80841908    -156.03603931
C        2.21972361       1.05299210       2.12085954    -155.62931264
C        8.64603831      10.83384009       1.71652715    -155.17902929
C        7.59615769       8.04565619       6.43486807    -156.21491263
C        3.30862696       3.88037949       2.31796365    -154.87942708
C        6.17578161       3.92812775       0.63786525    -154.89432969