200
Lattice="10.442332386506106 0.0 0.0 0.0 10.442332386506106 0.0 0.0 0.0 10.442332386506106" Properties=species:S:1:pos:R:3:gap17_energy:R:1 anneal_T=3500 density=3.5 run_id=416 time=0 pbc="T T T"
C        4.80856876       4.21409722       3.00708890    -147.10624898
C        6.29739474       0.77712569       1.52843375    -154.26822202
C        3.58550013       8.76029193       2.76296805    -149.63979084
C        3.08713982       0.14633362       8.08116440    -154.90032672
C        5.16007855       9.21735282       7.09299604    -151.42766530
C        1.79245768       8.90147226      10.00783738    -154.65969981
C        1.03004942       9.28043495       3.26096288    -120.36873116
C        2.71847327       3.88276201       2.99692851    -110.41552526
C        4.90541095       6.02236459       5.08651232    -154.08930691
C        6.50528069       9.58497513       1.24029847    -154.88693025
C        2.28309067      10.12017599       0.63047879    -155.26394995
C        0.61823411       7.82976525       4.73855292    -153.79610254
C       10.09576182       4.66331591       8.77119372    -154.03058692
C        1.94868542       3.99982055       6.88431647    -151.47347773
C        3.93805416       3.99710555       2.63494506    -146.94855890
C        2.03063684       8.85770845       7.30086111    -155.11716934
C        7.90981617       1.68324133      10.15946004    -150.34212933
C       10.07378071       4.53820633       3.38091396    -150.69855472
C        9.28924828       7.18006421       1.72502110    -153.35651626
C        9.38030541       2.78401980       6.19590571    -154.50456038
C        7.35132890       6.00115621       7.57343731    -153.45142635
C        5.18118250       8.38332373       3.95014638    -149.56252977
C        7.07392834       4.84210953       9.40983633    -155.33477761
C        8.14417343       6.67040529       9.06002864    -153.07338310
C        9.96149431       4.05099843       4.78190948    -129.32204241
C        3.79693648       5.35621688       0.00712514    -154.73074693
C        4.61703550       2.51327100       7.42564698    -153.13711614
C        0.21005587       7.65989983       6.34730909    -153.88238204
C        6.35050444       1.40688500       5.53170027    -150.84951504
C        8.58415067       2.39703740       3.75930231    -153.46541525
C        8.96835540       6.90218330       3.69924846    -154.09497921
C        1.67106557       1.79312599       3.53917795    -153.48942674
C        5.69158282       8.80197772       9.03143753    -154.31947388
C        7.85553692       1.17787421       2.78989883    -136.57944043
C        3.62596417      10.26477097       6.72161449    -155.02440591
C        2.48309266       7.66473463      10.15106441    -154.91727401
C        9.83211381       4.59800957       6.79635026    -152.27397672
C        1.25228627       8.62656742       6.32441949    -155.97727896
C        9.14954031       5.14414355       0.55067953    -150.15907061
C        3.10655212       9.59596046       3.94268011    -151.54072104
C        3.07005616      10.02360530       2.33378819    -152.29886628
C        3.68260338       5.09347735       9.14001690    -154.44687769
C        1.05923887       6.34825934       0.44071028    -148.91677039
C        2.19410111       8.87491741       2.26883688    -155.94974343
C        8.42367290       4.95633820       9.22429697    -153.82773210
C       10.22821236       5.00569911       2.16747316    -153.19241858
C        3.54355328       0.35952428      10.36716848    -155.15112444
C        3.07351258       5.53183602       5.28095899    -153.00644682
C        8.09227504       1.07778445       8.25025709    -154.89620318
C        6.98516852       9.83291787       5.30115446    -153.80254983
C        5.41106001       4.38785763       7.19403605    -146.04325887
C        6.61351547       2.17435466       3.73468974    -153.80909163
C        1.46645851       3.34616187       5.01567153    -154.46077322
C        1.51224813       2.37704033       6.14829912    -153.96033659
C        0.06558787       6.89474836       0.63594744    -152.80308651
C        8.09715161       8.45686908       3.67497004    -155.10352174
C        9.99336431       9.22139400       3.91949813    -150.16291077
C        6.74025405       9.57972264       8.65527339    -152.75571528
C        4.21578887       2.20143163       2.43742834    -151.31507581
C        2.20569210       5.96981877       8.70877990    -151.61410941
C        0.24059760       4.53607609       5.25680587    -145.52360786
C        7.44798313       9.84499965       9.50973812    -151.80769908
C        5.00102094       8.22006830      10.02637252    -150.27333238
C        5.54602715       4.96572586       4.33987511    -153.27296856
C        9.70992808       7.54806245       5.39291123    -155.58474282
C        3.07509981       7.26342535       9.16996551    -155.63703617
C        2.09761396       6.15215234       1.46457889    -149.23817984
C       10.15914677       0.88228415       4.80522721    -151.48377932
C        3.78688051       2.49329482       0.38311769    -153.25387517
C       10.43389498       1.28977424       7.18033571    -152.78909457
C        1.00067931       1.08410206       7.27613367    -154.06983714
C        6.21995440       9.62208718       7.54460603    -152.17526008
C        4.62027262       0.32069343       1.36777847    -154.78501752
C        9.98860260       1.57227066       2.63098741    -155.03045469
C        9.85709187       7.81932291       0.71268188    -154.21770560
C        3.20958661       8.10447168       4.26817805    -155.82909521
C        8.72068416       8.86193759       8.20462409    -153.65080261
C        5.24390959       3.31473045       4.68155867    -153.93155289
C        4.05083135       7.77678085       5.35762659    -153.79721180
C        5.26193306       0.33582959       6.62202597    -154.24601690
C        8.24397080       2.43035888       9.55076605    -154.17833787
C        2.66996864       3.32067214       5.69498703    -154.70008062
C        8.38857622       4.76270603       3.83124998    -151.42819919
C        3.29533904       7.99361588       8.22885031    -152.93477327
C       10.29870855       1.51698895       9.07145255    -152.63141131
C        0.17775460       5.34570145       9.74547378    -153.50254746
C        7.14214810       4.04571461       2.18319932    -152.77988091
C        7.11036164       2.53435407       2.66595879    -156.11073250
C        3.18695808       1.57619698       9.05528782    -155.74625319
C        1.90693697       1.57720988       1.45383373    -152.09258045
C       10.40110606       1.58654533      10.29788360    -151.22988366
C        7.59337173       6.34701670       6.28071833    -153.47226465
C        7.46035730       8.50264826       4.87223566    -154.82523762
C        3.22819485       5.83761884       1.11983573    -154.27039529
C        4.06904278       5.98359221       6.38230134    -152.31799235
C       10.25439129       1.96782621       4.44982243    -152.21770294
C        8.95236819       6.53978216       5.86282663    -155.26113064
C        8.70040515       5.98395769       0.05229729    -152.31565771
C        1.46573799       3.24582150       3.05591725    -152.52449039
C        5.67534500       1.60111238       6.86168794    -154.30311671
C        2.64990892       5.69089363       7.43290440    -151.74526393
C        8.28882062       6.61526978       7.16689643    -151.80021173
C        3.03919907       6.23872971       6.63005612    -149.50551181
C        0.90841087      10.22785732       9.90958547    -154.24743024
C        9.57606782       9.01956460       6.51621381    -153.59467899
C        0.90642265       9.29404131       2.82420189    -118.92458043
C        0.01456298       5.84933514       8.00097773    -152.17197337
C        0.84227853       1.09675817      10.41356376    -151.98027174
C        0.25001241       8.49730179       9.55537112    -154.21569886
C        4.06243278       7.80228103      10.03625096    -152.80398703
C        2.06521140       6.11190759       0.40619942    -148.36906809
C        9.12992961       1.21517422       4.00324564    -155.98075133
C        9.66409668       4.64404981       4.75890502    -133.56679726
C        5.15644462       6.23583719       9.55624827    -154.76072963
C        5.76166132       8.88615336      10.09318256    -150.32299062
C        9.34449866       1.49867310      10.23981379    -153.28447088
C        2.06856339       7.62304883       3.69175086    -154.30112906
C        2.52384908       4.36198153       2.71387865    -124.70594911
C        2.66133283       2.13689801       0.17005234    -156.18552176
C        9.37952224       0.49618204       1.98377165    -153.83733381
C        1.08800750       2.22467626       1.48836652    -152.92106492
C        4.66607269       1.29823253       5.46809603    -156.61738876
C        5.31640026       1.36775758       3.00132473    -153.48885446
C        3.95515870       4.62468973       4.56353943    -152.89643447
C        9.34984513       8.51414527       3.30778630    -151.64578964
C        4.89625302       6.62361320       3.11583535    -154.24486375
C        8.23183681       9.73537604       2.43405547    -154.13867508
C       10.31394391       2.93579910       3.93521384    -151.91935342
C        6.33772303       6.30396297       4.36498892    -149.75515560
C        2.97185647       5.24129901       2.39955400    -149.35421162
C       10.39301325       6.81678591       8.26208825    -151.12065076
C        2.06083607       9.78216813       6.02179026    -153.77681562
C        3.32100630       0.74709041       5.30638607    -152.38302177
C        7.53989654       3.94869490       8.08002618    -151.41615432
C        0.23743462       4.75550082       4.19765054    -143.37103637
C        6.80279318       3.32052595       7.46826214    -153.65408366
C        1.55721282       7.39255523       0.92639047    -151.47134452
C        7.35943215      10.19332453       0.50877341    -154.10411962
C        9.21498241       4.20251667       0.62152971    -149.39982659
C        2.31369714       8.15625521       1.25534587    -151.86098103
C        7.56110492       0.94294679       3.32688533    -135.74727031
C        6.71274895       9.61576957       3.29532860    -153.46021581
C        9.29957574       8.74866961      10.09345406    -154.19133817
C        1.94718172       0.41481121       8.13041044    -155.05022084
C        8.84165858       5.51272656       4.89035310    -153.54474329
C        7.25758809       8.77372077       1.42975371    -152.18151196
C        8.53438251       9.29973238       4.52557111    -152.44114812
C        1.69041521       6.07227894       7.75636609    -150.59188109
C        5.79671623       1.84557783       8.24238357    -154.04637364
C        6.92202373       4.80893424       7.74673826    -152.46140833
C        4.07808584       8.95148059       3.56275673    -150.25974559
C        6.34674520       2.88413044       8.87455193    -153.67268514
C        5.85707291       8.06890510       5.16630218    -152.92678349
C        6.37418765       7.40128502       6.72091486    -154.47028229
C        4.70801954       4.46748041       6.39484258    -149.88128584
C        9.94000399       5.84011456       6.00238841    -152.01094965
C        1.13462207       9.16599743       8.19575855    -154.99159759
C        3.72974007       4.92572128       3.26723873    -149.67674737
C        5.45977349       3.40916047       7.04508662    -149.24462074
C        6.36135402       5.60022286       7.15157753    -152.57508164
C        5.44962354       8.04093009       2.22366335    -153.83128196
C        3.92522053       1.42638083       6.56153354    -153.99146698
C        4.38969548       1.89758064       9.10614198    -153.75368314
C        5.95779965       3.93898353       6.05963327    -151.95250298
C        5.32827320       1.27666912       4.11060326    -153.16708971
C        3.66985329       6.83205260       0.54022154    -153.36127812
C        1.97025927       4.54731204       7.74987096    -151.07241574
C        5.50165768       6.91456791       4.71276036    -153.27119344
C        4.68673806       8.95470727       4.52236531    -147.30230427
C        9.53606324       1.74457959       8.35098383    -153.93247023
C        6.00534359       5.01768690       9.85287317    -153.67410789
C        6.36132270       0.07174457       8.18860556    -150.62816698
C        5.10030664       1.84537942       2.04730280    -151.66728435
C        7.92402818       2.65959940       6.72641796    -154.12060019
C        1.57782598       6.83102925       2.08865444    -148.53474549
C        0.51475791       5.40960852       6.03150163    -150.57617415
C        2.68090176       3.63054835       3.57641530    -130.89088060
C        4.70411411       5.23877197       7.42057201    -148.91675802
C        0.79810433       7.95892646       8.17664909    -153.98952313
C        4.63433844       2.39324683       4.65194421    -153.76102704
C        9.52169459       8.77271830       4.72674264    -152.12408423
C        6.57080633       8.40997256       7.69978954    -152.93824464
C       10.24723829       9.21785405       8.34360110    -154.88791603
C        9.60644456       6.22001706       9.65542954    -154.12611756
C        0.88246480       4.52674065       7.31394535    -153.46045538
C        7.93630836       3.62418897      10.36790988    -154.86576393
C        5.01014754       0.13700236       8.37588879    -152.41716941
C       10.41494215       1.76624743       1.63186505    -153.89127463
C        1.37567287       3.03500125       9.19310572    -152.23948322
C        5.44181268       6.05897541       6.36686758    -153.43750788
C        7.03602268       8.01965906       3.47500981    -152.18447194
C        7.27122577       3.88622886       5.15572410    -153.74007264
C        3.70425034       4.24959070       6.11899793    -151.99593333
C        8.41850395       2.78607693       7.87923058    -154.66199048
C        7.96667467       2.93787712       1.87686305    -154.16884514
C        8.67543754       0.08025747       7.80254209    -154.23179499
C        2.31188018       2.64812328       8.94658314    -154.36389811
C        4.92651490       9.02062972       1.25564870    -155.44124912
C        4.31104383       2.81171286       8.36634450    -150.29931629
C        6.58418295       0.73139976       6.27870296    -151.58931964
200
Lattice="10.442332386506106 0.0 0.0 0.0 10.442332386506106 0.0 0.0 0.0 10.442332386506106" Properties=species:S:1:pos:R:3:gap17_energy:R:1 anneal_T=3500 density=3.5 run_id=416 time=1 pbc="T T T"
C        3.90639301       7.54042910       0.02378273    -154.94645715
C        5.16639616       1.11907343       1.59064917    -154.77781432
C        2.54877493       7.45817485       1.96773223    -155.73879822
C        6.38052615       3.27347280      10.07161914    -156.50709526
C        9.15501209       5.19184412       4.26733223    -156.36126440
C        2.22181506       8.94376371       9.35553620    -155.10315741
C        2.83314053       1.71371205       6.36792225    -156.39339386
C        8.18591144       3.88866193      10.49684136    -156.45479271
C        9.85769752       6.36557273       3.06479323    -155.35787614
C        2.02894518       3.56690234       1.02005819    -156.07458885
C        2.64649428       3.36838316       2.34325939    -156.22970764
C        8.96111886       0.92280980       0.65323472    -155.34781267
C        1.98657020       1.32023453       1.45510769    -155.94614635
C        6.74761590      10.24100422       7.65779047    -155.57014264
C        6.23419774       3.51862744       3.15149591    -154.87814092
C        4.94642843       2.31138939       5.18823108    -155.97652434
C        2.23778139       6.69452708       0.58596208    -156.11479126
C        9.96724803       8.42106232       3.54149614    -156.03631222
C        3.60750213       5.16797295       5.67150222    -155.27343781
C       10.46175512       5.46177842       7.38989244    -156.58591842
C        7.73920934       6.34798784       7.81715091    -155.10002506
C        0.17791228       4.96717734      10.41141264    -154.64993550
C        3.28585741      10.09392397       7.73075105    -154.99796590
C        5.32989176       3.75676483       6.59372725    -154.94840991
C        2.42018805       1.42456387       7.73240094    -154.22574401
C        4.95981550       4.20743501       7.81093772    -155.14537559
C        7.95416475       5.49903666       6.64311948    -157.16726284
C        6.27475576       8.95520850       4.95896967    -156.70068859
C        0.73864360       0.51030008       1.93766876    -156.38141879
C        0.40148575       0.99908268       6.10614342    -155.72039213
C       -0.04667462       5.86163621       4.23558754    -156.34791970
C       10.18161867       4.50279638       4.39565805    -153.92292663
C        3.01526525       3.80751456      -0.15328091    -155.08046431
C        5.01800017       4.92100135       2.39632732    -155.29821231
C        8.06411207       0.56654352       4.62480459    -155.61908061
C        1.44130293       8.11209459       1.82866125    -155.57877567
C        7.23078262       4.91726299       4.00912467    -155.29729085
C        4.26745753       4.26851221       1.00264874    -155.23207176
C        0.09964564       9.16690591       5.30462131    -155.61092115
C        7.19471480       6.74006609       5.35855596    -155.84244855
C        0.05276928       9.13385593       8.39314996    -154.78924430
C        0.05593101       6.50238817       8.36485124    -156.45653740
C        9.34704658       7.48814434       6.64295240    -156.27112835
C        1.20969200       2.10903787       7.84637900    -156.68427561
C        3.66002706       5.36829866       9.11213588    -156.39776121
C        9.49189218       9.12379996       1.25888582    -156.32660359
C        9.27838825       3.98350963       6.67061414    -155.33908268
C        7.93248647       0.36765364       2.20547281    -155.21776287
C       10.25986307       0.24081794       7.75665848    -155.15883011
C        7.28640892       4.15213242       6.75847592    -154.28926498
C       10.22228112       3.66574946      10.20301501    -156.27667141
C        2.85599879       3.51705064       6.17000873    -155.11307151
C        8.96176629       7.33959172       4.12055480    -154.91182566
C        6.54902362       5.83794256       4.82100557    -156.36287477
C        0.48052481       7.95201363       6.80516359    -154.64705189
C        9.39319125      10.61076721       4.11628389    -155.44532496
C       10.17380781       0.59829552       3.10401463    -156.08289443
C        3.22260820       7.35779271       4.09030337    -155.34904620
C        1.21840090       5.47201190       6.35693692    -156.76631921
C        4.09007363       1.35070525       5.88513146    -156.25999038
C        5.61499876       5.99197740       0.50062734    -154.53134838
C        4.71379415       5.36947864       6.52427529    -155.58098653
C        3.68547502       8.80989301      -0.09797529    -155.54791243
C       10.03795306       6.21686347       1.19286940    -154.82689070
C        6.15638148       7.77272923       9.22055861    -156.04850354
C        4.05820364       0.12015887       6.53600203    -155.39373737
C        5.10619611      10.36562301       8.03710820    -155.47991754
C        0.93113965       8.56791284       2.99882901    -155.85033305
C        5.71999641       4.24244815       0.19994456    -155.20240181
C        2.18473434      10.29235961       7.03455031    -155.27879715
C        4.91295031       8.25991624       2.77132192    -155.89129012
C        7.47074742       9.87603426       8.81913447    -154.85786268
C        9.34756870       7.45840458       0.84438162    -155.00203037
C        9.98039493       1.39765398       8.08997773    -154.55705616
C        2.96667707       9.84610653       4.41826570    -155.67775360
C        5.79183966      10.16396069       5.73773793    -155.30677722
C        9.90719418       8.51157646       9.87345500    -154.16748212
C        8.90128430       1.93606064       4.40439828    -156.54400114
C        6.61926919       8.46759335       3.66031944    -156.23100023
C        3.31415613       8.49880548       6.83859994    -155.28547789
C        1.27166724       1.50977330       0.36106035    -156.67377235
C        6.03411221       6.69332621       8.38129792    -156.47420649
C        3.05599034       9.94916191      10.48566807    -155.96210664
C        1.66360974       3.10562275       8.78376629    -156.11178847
C        8.97626025       2.80813114       0.83805043    -155.77771748
C        0.82918071       5.51839674       8.96052365    -155.82100614
C        5.10268749       2.38909078       6.43120279    -156.31726403
C        6.60170519       2.25099094       0.45107012    -156.02225230
C       10.22311650       0.78016127       0.24539794    -155.36608200
C        1.62717644       7.74533899      10.23065587    -155.87516522
C        2.27994753       5.10685398       1.00448763    -155.06746187
C        7.20619093       4.35789857       0.84903368    -155.51149284
C        0.05811043      10.06394403       0.94047927    -156.77822838
C        1.00771536       3.02394282      10.21920063    -155.90194587
C        0.19162515       4.29082747       2.71118453    -157.25631013
C        1.52747305       3.88280378       3.48390668    -156.32429783
C        1.75246355       0.65608235       9.73703637    -154.22479622
C        6.02270918       5.29192344       8.92946816    -155.51152926
C        3.01408526       6.42100063       2.86026971    -155.30441824
C        8.83008848       3.58292088       7.88049410    -155.29832096
C        6.86265908       0.18494728       4.93332330    -155.81209813
C        8.83525743       6.23058470       4.98752945    -156.49131851
C        4.49606107       7.31007125       4.30738901    -155.79280296
C        9.30968392       1.94942682       6.91292846    -156.62568914
C        0.80159207       3.93794974       9.17059205    -155.67134580
C        8.67983376       6.16976855      10.20558383    -156.45708826
C        6.96862786       3.41559294       1.88026725    -156.31685857
C        1.27953031       9.69464050       1.46325271    -155.98800126
C        7.10698877       6.47668959       2.65687396    -156.73479316
C        7.41646817       7.05022425       0.22786527    -155.64845367
C        2.36509430       1.91292043       3.00224366    -155.79937298
C        8.31597068       8.88157962       0.29629178    -155.85230205
C        4.97774498      10.08726176      -0.15147125    -155.83397991
C        7.08230309       0.99539132       9.07529533    -155.19304669
C        4.73726851       0.21470375       2.49843245    -155.19885903
C        4.60789845       2.80781787       1.32063133    -155.40499282
C        1.57259437       0.19522776       4.26900300    -157.14390445
C        6.14037339       3.67092885       8.70514597    -155.45397723
C        3.87016856       2.13461114      10.55719804    -156.87444171
C        1.06175547       6.24215480       5.22077983    -156.35571520
C        5.18482688       6.08563468       4.30829750    -156.91239855
C        9.33212449       6.02779460       6.39500966    -156.66955663
C        2.78247433       6.14854973       8.60272757    -155.12755216
C        2.25653582       4.65920163       6.64900895    -156.94005507
C        0.94307941       3.18756373       6.76637033    -156.03306366
C        1.84563004       7.80798254       6.68432492    -155.64775252
C        8.29536796       2.25236933      10.19303214    -155.76156622
C        1.50327817       5.92195112       1.52808915    -155.70402149
C        3.22426853       8.70848752       8.10533840    -156.63087496
C        8.10026342      10.44358547       5.62378076    -154.39466627
C        1.15836793      10.11911087       2.96930854    -156.30468088
C        7.07203828       9.60256002      10.69702087    -153.82087167
C        8.67216909       9.01432255       9.27971443    -157.10469930
C        9.38710337       2.94749451       5.52228129    -155.67335751
C        5.76797893       0.33500255       6.99162188    -156.72875055
C        5.68397036       3.10187395       4.25305756    -154.03780762
C        7.49796014       8.71450230       2.08078092    -155.69148826
C        4.81656758       5.61667997       9.71970210    -156.01797773
C        5.71767821       1.44704621       4.31907398    -154.99464353
C        2.31465784       1.36738166       4.20547185    -156.09817213
C        5.81374767       7.49146500       0.21991552    -155.38580336
C        2.82878607       9.43352998       1.24273153    -156.12647247
C        6.13293845       1.91944689       6.96472243    -155.35026740
C        5.32320867       0.53163272       9.32067970    -157.52594880
C        2.85592570       1.05911356       0.40488160    -156.93038549
C        7.41407688       8.97548751       7.02830579    -154.52114415
C        8.67111441       8.15448001       8.25695062    -154.93132469
C        1.42335256       2.45874114       4.38225009    -155.91405964
C        7.20248390       1.20851201       6.91692788    -155.11373546
C        5.88924573       6.39067609       1.66214782    -155.59292401
C        5.72367211      10.26306887       0.93130359    -155.96108815
C       10.19482822       1.97635760       5.92627425    -155.43877008
C        8.84468686       4.94015259       9.64200071    -155.38041220
C        0.23594554      10.43149325       4.95929338    -158.05968985
C        3.73992134       4.06334126       4.61981316    -155.61941310
C        4.05147877       2.46436956       8.40122189    -155.39952397
C        8.12648412       5.02412982       3.04785577    -155.01656125
C        0.29729738       5.62896016       2.24109161    -157.88927459
C        6.47346290       1.81946155       3.22482197    -155.93009933
C        9.02780360       3.11888451       9.01715242    -155.09560702
C        2.27593767       5.17916713       4.23332155    -155.11160440
C        8.48806032       0.69777023       6.80950760    -156.26306531
C        7.95271327       2.67918922       4.72909216    -153.10781855
C        6.85494219       7.97325334       5.90643381    -157.89304908
C        5.49153906       2.45891866       8.47892328    -155.90320966
C        4.77230254       1.79854556       9.46355169    -156.91837212
C        5.92330862       2.37707166       1.93679160    -156.91757766
C        3.56891771       3.06343573       3.41012116    -156.04762442
C        3.64042680       9.44787775       2.53859366    -155.18217802
C        3.57986127       6.81734979       1.19791304    -156.32312221
C        0.50898434       4.31586819       6.85232117    -155.92766381
C        9.18932560       6.99436821       8.96896106    -156.65525583
C        5.92280739       7.19735671       6.77236423    -155.79834366
C        1.79253078       2.57697967       5.71635204    -156.69413381
C        4.59697577       6.97582263       6.09555490    -155.22415130
C        3.24706414       3.17522089       9.06733827    -156.16837348
C        4.31612925       8.06664956       8.80696915    -156.04720596
C       10.13187140       2.16366171       3.39178442    -156.03829105
C        5.97149999       9.09694228       2.52129071    -156.04427290
C        7.74155887       7.47686662       1.76391879    -156.52688366
C        6.76151464       9.60040890       1.53003143    -156.70714412
C        3.94638714      10.11225026       3.47048828    -155.93211979
C        9.02405480       9.52584020       2.63480931    -155.87865289
C        2.92247468       9.72065235       5.90764512    -156.43119247
C        8.45931258       2.80789097       2.15800197    -156.41464976
C        5.29973430       7.56747474       1.77737895    -155.82410347
C        1.28036570       0.83799300       7.39477945    -156.60955492
C        6.45114764       6.92526086       3.72605393    -156.64999711
C        4.62229843       2.37299915       2.76489988    -155.33405140
C        4.20938772       5.00168925       3.70680871    -155.54580962
C        5.45317393       8.63807487       8.29543062    -155.69205008
C        7.87370658       1.44320343       2.78297556    -156.87127020
C        3.56705897       5.68074368       1.75485484    -156.06060473
C        2.85558110       8.23553340       5.44101906    -155.47107840
C        1.68611297       7.30276162       5.48641188    -155.82109170
C       10.19108987       2.97409113       2.15747985    -156.03419954
C        3.37952513       4.87075285       7.69741913    -155.30542932
C        7.36715948       1.22169024       0.09182851    -156.21836572
C        1.61297487       7.06446759       8.86361881    -155.88687457
C        9.35202758       8.46048212       5.50405942    -155.74235727
200
Lattice="10.442332386506106 0.0 0.0 0.0 10.442332386506106 0.0 0.0 0.0 10.442332386506106" Properties=species:S:1:pos:R:3:gap17_energy:R:1 anneal_T=3500 density=3.5 run_id=416 time=2 pbc="T T T"
C        0.22290412       9.23891623       3.65778196    -154.57528672
C        6.37951324       9.24831433       9.14853785    -154.42848697
C        6.21859690       5.90151548       9.23077121    -155.79364528
C        5.94584318       8.02092258       9.45743248    -155.47291610
C        6.80530979       1.15115228       7.16702174    -155.62990673
C        1.56205806       4.50771472       2.44102050    -154.85562380
C        1.40852445      10.53109221       4.08939488    -156.12692520
C        8.38209153       6.90572325       2.71892230    -154.92463443
C        6.40048144       3.15897262       0.51928570    -154.40627193
C        1.89299646       1.37568331       9.57261141    -156.67665593
C        0.77793810       6.75495686       6.26880363    -156.89009082
C        9.20757879       5.23451149       6.37371775    -154.95599843
C        3.92250553       2.09064892       1.49698144    -154.85423272
C        2.01503600       5.83210529       8.67798546    -154.59615123