200
Lattice="14.919689298659158 0.0 0.0 0.0 14.919689298659158 0.0 0.0 0.0 14.919689298659158" Properties=species:S:1:pos:R:3:gap17_energy:R:1 anneal_T=2400 density=1.2 run_id=107 time=0 pbc="T T T"
C        8.64743700      13.30545351      11.03052913    -155.09968798
C       13.70298864      13.25935168       5.47889782    -154.76017186
C        1.47761470       5.34465046      13.17037065    -153.14123824
C        8.29886830      13.94444889       0.54143403    -156.32317579
C        2.32885906      14.30625135       7.51337649    -154.44546519
C       11.40296933      12.79487191       4.50804380    -151.45043958
C       11.51213670      14.61846077       6.04368266    -154.61815517
C       13.08776033       3.89578451       7.49863584    -153.75840822
C        1.66739464      14.11316073      13.34760164    -155.59596366
C       13.44759339       6.32709708      11.54736209    -154.41984026
C       13.94652272       5.00895745       2.50559770    -153.52801630
C        5.39858513      12.25670380      12.30869891    -152.91943272
C        9.11066351       4.13790123       8.28575389    -152.69006501
C       12.96280793      12.60658543       2.18592844    -152.84849291
C        8.42100087       6.32115904      11.29935209    -153.54543649
C        5.47404892       8.81549238       5.07708075    -149.01199035
C        4.93529894       9.58639272       2.86978732    -151.51196273
C        7.84281815      12.89833995       5.82928673    -154.12626245
C        5.65562154       0.63397937      12.37968679    -151.83158193
C        9.13105873       3.72499883      12.37036199    -153.27838269
C       11.50245382      12.54419129       0.76617379    -151.51748711
C        2.43896637      12.31084735      14.18492444    -153.44559581
C        0.03423785       2.44682904       8.78683165    -153.70076663
C        3.14162406       4.95782767       0.92092827    -154.55627326
C        3.73511438       3.99786502      14.75258878    -157.22214906
C        0.49034006      11.21798011       5.75277856    -152.96431344
C        2.87955971       9.75091214       0.24879328    -153.03423551
C        0.36336306       9.50275295       3.10772652    -154.40370076
C       14.56000543      11.00995488      13.09428023    -156.81694510
C        1.12765250       8.90778558      14.82074192    -153.63212690
C       13.57600716       7.32526905       8.80003558    -153.80633760
C        3.20564444       0.39589694       6.54622256    -157.01806286
C       11.72362330      14.38732495       9.47310752    -150.28756349
C        6.23135743       9.92219017      11.14949873    -152.92151886
C       14.89316209       7.27660103       8.06756835    -156.03318565
C        3.27864648       6.91536551      10.57391204    -155.10202085
C       12.08241198       8.06183919       6.55690505    -158.28708682
C        3.04486987      11.06730616       2.16753246    -151.37236227
C        6.12338364      10.09539284       0.38286608    -154.53573322
C       12.51280026       3.46102476       6.14079492    -156.60634696
C       12.69774473      11.41785918       6.22707548    -152.76890399
C        1.65295238       6.98205652       3.61930775    -153.59085245
C        9.35372017      11.18408257      14.62378710    -152.87624126
C       13.62674902       8.63748557       5.20756835    -153.24882095
C        0.74065814       7.28370280       6.55572640    -152.17482028
C        5.40896924       7.84869651       9.30182949    -156.88131096
C        2.06117000      12.99182673       4.51338505    -154.87440085
C        5.09589448       0.60479646       3.27182818    -152.31892037
C        5.39222935       4.04513060       2.56424700    -151.13361768
C        0.96673619      11.57175578       4.21770665    -157.05918795
C        3.64772976       3.22887440      13.81455807    -154.07477564
C        7.21486335       6.64218600      11.79713261    -157.34954621
C        5.67036220      13.69564815       4.85136077    -152.31222738
C        0.02664149       5.49598087       9.42894524    -153.73045571
C        8.02616622       0.25992933       2.86277506    -155.12930691
C        9.83832660       7.07091819       9.75315009    -155.01503348
C        8.55981366       4.59689055       4.68687120    -154.85765138
C        9.45499502      14.01218428       9.35052736    -152.82729216
C       14.83598984      13.42569129       1.65029667    -153.33522348
C        1.51595979       3.52370238      10.02855264    -153.43789491
C       13.19762892       0.48147628       3.55980803    -154.58280686
C        0.39805283       8.57374865       1.70085950    -152.84107999
C        9.19115523      12.58975602       7.29086425    -153.32423608
C       13.81764645      11.31870293      14.88033116    -156.47905698
C        3.06080410       0.60181551       1.26666223    -152.17872966
C        8.42340294      10.23280318       9.89690130    -152.78097094
C       14.74708341      10.63373999       8.98999306    -153.53305764
C       13.43649315       9.84329485      12.96461321    -154.55679802
C        0.38914130      12.59068104      10.86524881    -154.09180583
C       10.61386697       7.12274919       4.49668992    -152.19000012
C        9.42297737      11.44757921      13.39100301    -158.46137234
C        1.98314002       5.76374453      14.01400448    -154.03308968
C        8.80688372       0.58647657      10.87081386    -153.14064252
C        9.03129076       8.73042031      10.57856698    -153.94787540
C        5.84689196       4.93623888       7.14656101    -150.33527466
C       14.42542983       4.86574335       4.46180768    -153.10888726
C        9.84671146       5.69608374       2.28484598    -152.30031851
C       12.05740659      10.44515512      14.03307184    -153.75415390
C       14.31638182       8.84042318       8.05784072    -153.15996620
C       14.01842071      13.67711790      12.65219492    -153.41293081
C        1.80347712       0.96489361       2.96552696    -153.16470774
C        5.49768171       5.57947145      14.31882865    -153.69386886
C       14.84103270       1.35702034       3.06686149    -153.70680029
C        8.97317857      13.52287815       4.53176611    -153.35143337
C        2.30225726       3.32846333       8.20472506    -154.27943319
C        6.43272848      11.05043200       4.62810254    -153.11499831
C        4.13712540       7.45526430       9.08024226    -154.61231321
C       13.12033001       1.66090457       4.47505637    -156.08881809
C        3.96736918       8.81091203       7.06829232    -152.59881650
C        1.85272702       5.49435462       4.03650702    -155.21841846
C        2.66204556       1.46893591       9.02150345    -153.54002668
C        7.72417678      14.65304461      14.78870935    -152.97165446
C        8.87506670      14.84670218       8.08641192    -153.40619388
C        0.77385444       8.61855248      12.23641302    -152.24496166
C        8.25564596       2.93245001       4.67580079    -152.71826831
C       13.91192397      12.71159020       0.47318541    -155.79269990
C        9.93660259      10.00207019       3.25780368    -151.54329423
C       11.95911567       8.48363373       5.24968664    -155.50901537
C       13.67683442       1.03873115      12.92154007    -154.53539672
C        6.74607179       0.35818593       4.07025536    -154.12254381
C        5.05056846      14.05551106      10.60269212    -153.64883883
C        9.47800118      12.98805204      13.76069799    -154.27876922
C        9.55503154      11.94856745      10.37198896    -155.55481272
C        2.75859087       1.59582489      10.79033705    -153.91583124
C        0.45440152       6.82299771       5.67039203    -153.00303270
C        8.38220968       7.55010877       7.01704319    -151.94280024
C        9.42141080      13.40935423      10.27253432    -155.25872303
C        7.50748322       2.40629225      11.14551518    -150.36452194
C        5.16295848      10.49000371      14.89035719    -154.50685865
C        3.95807421       7.67382283       1.63275112    -153.35097839
C        0.88127322       3.89341228       5.80481844    -155.32474883
C        9.85429067      10.22286667      12.00032385    -153.94843341
C        9.65535153       7.09138800       0.11830881    -149.96128466
C        1.62418722       3.73839671       7.51862823    -154.09406590
C        5.12682299      11.25496602      10.91024659    -154.53537190
C        0.32290236      10.18034556      10.79725979    -152.57056445
C        7.56061223      14.20858707      11.29229508    -154.64718142
C        7.93851304       4.77867204       7.43642074    -156.19774970
C       13.80242837       6.09457372       4.71524845    -154.21072490
C        0.18064312       5.51503331       5.20322672    -156.19057676
C        2.01365079      13.24444691      11.37578566    -153.68752180
C        4.31919037       1.21536237       7.15205146    -156.73740791
C       13.52614556      14.63114251       5.39989807    -154.69360003
C       11.10300898      13.66916570       4.90571320    -154.92658990
C        5.17086592      11.78125806       7.79298639    -153.89304494
C        4.39062585       8.37519743      11.30578248    -153.22103529
C        9.61133844      10.87018723       6.31435566    -155.04353708
C        9.66549692       2.92454258      13.59101637    -153.61991092
C       11.10084563      10.30138899       6.74140193    -153.81685441
C        8.45091485       7.26393421       9.55103306    -155.14606977
C        2.34473361      11.86079492       4.53955418    -155.05033837
C        7.43267590       6.36271038      13.16058333    -154.18691831
C        0.41974606      13.44334128       4.36885802    -153.74742431
C       11.08212142       8.59770967      13.79777342    -151.92011525
C       13.35162995      14.61301509      12.79203717    -157.76561190
C        7.67902980       9.95185051       7.61739657    -152.57073089
C       11.99305797       2.43201379       6.57021342    -153.02808289
C       14.26507301       3.56696948       6.39487723    -154.90220563
C       14.54513050       0.72388095      10.70072940    -123.99756782
C        8.40166496       3.74249962       2.31079132    -155.84545219
C        7.72598207       4.79785876       5.90034921    -155.90148675
C       14.71946707       6.29449756      10.71820035    -156.31030387
C       14.82171170       0.59846305      11.11036439    -125.23900672
C       11.64968132       5.50940859       6.62487916    -154.26692765
C        2.38958220       7.82567543      13.35753815    -154.51823275
C        2.40151795       5.40616434       2.68426098    -156.93178487
C       13.41217405       7.90382476       4.48729051    -154.00998225
C        2.87209987       5.87061426       6.70563944    -151.83281043
C       12.75029188       6.56809482       6.16438295    -156.47789696
C       11.24298551       8.15859338       7.41495130    -152.45557237
C        4.53225846      13.30961611       6.76769042    -152.12544905
C       10.07171530      12.93056648       2.73964287    -153.35707834
C        1.76695372       0.58735385      13.11677912    -154.37075482
C        0.61680234       3.31026130       2.72024727    -152.12450979
C       11.99578827       4.38230066       2.09223279    -152.06249941
C        7.55926946       7.46087411       4.06291487    -151.20384701
C        2.56657447       6.74619115       6.32932011    -154.06859574
C        4.05003918       9.94850850       8.83811063    -152.47961323
C        4.48235210       5.16610654      13.59961011    -155.89213829
C       14.51466449       3.45120761      11.74081078    -151.09956070
C        9.64025280      14.14693891       1.19099404    -155.44490550
C       12.26256723       4.00046105       4.08219111    -154.13765688
C       14.56782335       6.18879156       6.26213675    -154.64262377
C        5.27139478       3.69741232       9.52677365    -150.29342020
C        6.83154669      12.30601337       9.97378246    -153.32291002
C        1.72213498      14.60289954      14.90026386    -154.39187827
C        7.22363613       0.93063054       6.01887122    -152.74048835
C       14.20915402      14.72258528       7.62979483    -150.78219907
C        1.96334159       5.45053549      10.76637603    -152.59525236
C        3.04246780       0.62769669       4.87736579    -153.95634603
C        2.71759157       7.01101564      12.27568164    -154.95310657
C       10.97126812       0.81042708       1.04041707    -153.54678478
C        5.66964605       1.99476246       7.24746287    -151.98258411
C        3.15156057      11.10484410      12.90284570    -152.63818767
C       14.10394037       9.84994904      14.91290084    -153.87776831
C        4.66570016      13.21865076       9.14821637    -153.86299780
C        6.33336335       7.61360697      10.40843777    -154.01256375
C       13.47452343       2.96425879       4.23942971    -155.71642921
C        7.39601822      12.12530609       4.23802726    -155.26689966
C        0.93285059       0.60098448       1.21973234    -153.22767824
C        1.95371839       1.96998086       5.84811537    -152.42264114
C        4.99096430       7.93708075       0.42856658    -154.39177597
C        3.22227990       4.14348119       2.61813692    -153.35292537
C        7.80081923       7.75200201      14.39872359    -152.99257719
C        9.21225168      12.65511918      12.49544866    -156.44724399
C       10.01972018       0.27480427       0.12173228    -156.43909131
C        8.16490441       4.78219309       1.80177628    -154.77307629
C        9.31916617      10.83888572       9.97433449    -155.36331721
C        4.97822289       9.41065370      14.45359820    -156.45526055
C        9.19584002       9.28826749       7.12703114    -154.86360815
C        8.39302646       1.81305556       2.81080979    -153.60604741
C        1.29115439      14.69116442       8.77816332    -154.84204719
C       10.70008785       1.59276635       5.39860005    -153.87248662
C       14.46908484      10.41312255       4.20599469    -154.80811790
C        0.65879082      11.93400584      12.91889928    -153.90114769
C       14.67988513       7.73793274      14.85975691    -153.52159680
C        0.36519073       5.83474733       2.92769063    -154.77953504
C        4.70003036       0.39651760       8.64045458    -152.46235776
C       10.10115184       3.54232215       2.41593037    -153.09571885
C        6.98586104      13.55873016      10.09598963    -157.25934649
200
Lattice="14.919689298659158 0.0 0.0 0.0 14.919689298659158 0.0 0.0 0.0 14.919689298659158" Properties=species:S:1:pos:R:3:gap17_energy:R:1 anneal_T=2400 density=1.2 run_id=107 time=1 pbc="T T T"
C        7.68420694       9.44226853      12.51675398    -157.37588230
C       13.44102873       5.87765636       9.66515376    -154.86394289
C        9.69123338       9.55091370      10.24420183    -154.74285470
C       14.02682049      10.03772825      10.14237495    -156.10408976
C       14.26923560       2.78710240      13.04488114    -154.13615802
C        6.63257772       4.66438722       1.05221109    -156.30189992
C       10.40188802       9.72695112      11.33508475    -156.74940067
C        9.20277767       4.45425832       3.85969378    -156.11137273
C       14.36897373      14.86908171       8.44822931    -157.07758475
C       10.86745693       1.17448540       6.50226915    -158.48721900
C        1.70178452       9.58255836       0.65810600    -155.18749916
C        7.32055443      14.64488354       6.78813040    -155.39657395
C       12.34593846       5.39677985       8.92771828    -158.05270577
C       11.36134340       0.31057273       8.80407882    -156.68530050
C        1.83525606       3.01546316       7.85097922    -155.29970765
C        2.47704142       8.58687798       3.02410166    -156.75726680
C       10.99055928       6.44497754       0.30222367    -155.30888687
C        0.17836638       2.91329313      14.57610377    -155.14293629
C        2.62877466       8.65343471       4.64175406    -156.72204211
C        7.27739177      14.91322907      14.16391752    -156.84048787
C        3.17607362      -0.23205190      12.88227145    -153.59063285
C        9.44022453       3.47097620       4.82648965    -157.48416260
C        6.24967881       5.66766173       9.81364943    -156.68783226
C        0.40746119       7.16917926      13.85949618    -154.82553917
C        1.44224161       8.17202110      13.10393327    -156.40702608
C        9.04268941       7.38379899       2.32536785    -155.27999087
C       13.89252837       0.13499663       9.82377990    -155.33183762
C        5.65964986      11.90812017       9.36880398    -155.38731706
C       14.48070728       1.44864215       9.66342308    -157.84620265
C        0.35811283      12.87628865       3.55876365    -155.66873864
C       12.34023914      14.16042631       9.49423380    -156.48776863
C        2.90905594       8.08442760       1.58579886    -154.57696290
C        3.77860527       8.91208245       5.49602563    -155.16927399
C        3.50493341       9.75540296       6.44690218    -155.73902872
C        1.22877367       4.42841742      14.68961277    -154.55782424
C        8.41670400       2.43829498       4.43622042    -156.00276994
C       13.40204358      11.42100724       0.93440821    -153.84875547
C        1.72649153      13.66722614       8.65831345    -156.21677342
C       14.08846865       9.59901478      12.67179939    -157.15817157
C        7.49411518       1.45179617       0.55275211    -153.90402269
C       15.30968998      10.03802664       6.00772621    -155.99606339
C       12.83166386       6.06360045      11.13147575    -156.13919823
C        3.38803764       9.78281043      13.44862285    -156.35845172
C        1.09490079       8.81852108       5.41222173    -155.28627493
C       12.72409290       3.03931975       5.87362804    -155.95830825
C       12.04451597       4.58599918       7.84047576    -156.86074451
C        5.15029167       9.44085116       0.53235391    -156.89310716
C        2.84591581      11.81176882       4.93477675    -154.56890171
C       13.03267684      12.11307195      14.93654855    -156.83939124
C        6.90034138       5.67894102       1.86851205    -156.86073771
C        7.44200070       3.02650373      14.07756236    -154.30527361
C       11.17237062      14.17157132      11.56372899    -156.64978044
C        3.84089497       9.03124601       0.28412758    -155.51112088
C       12.97520619      11.81569270       5.99868488    -156.93073202
C       13.81290199      13.61239628       7.97805022    -155.49348184
C        9.29956170       9.40420840       4.71341332    -155.93273952
C       11.51094313       0.58012974       7.47239211    -155.58583993
C        7.06210065       3.35236467       0.90776462    -155.49710815
C        4.70819143       6.23717611       4.86123761    -155.61699356
C        1.63680927       0.29597232       4.39149119    -155.87509057
C       12.12350081      -0.30053178      12.49097276    -157.83238880
C        3.47427345       5.35178207      10.46234260    -157.16989496
C       10.36433516       5.52392544       5.98583903    -154.18036519
C        7.79349366       6.76248345       2.67623419    -156.59719599
C        6.33400489       9.83352246       0.58681376    -156.29812611
C       -0.14570628       1.11227925      14.68671835    -157.75618038
C        1.59628740       9.17601175      11.03393082    -155.92996824
C        5.61013141      14.35426291       8.00774040    -156.07977206
C        4.26418148      10.22931198      12.57140480    -156.01800848
C       13.63987835      12.99140897      12.60119942    -156.85746805
C        9.49315959       3.63846463      14.00441112    -154.57475630
C        8.96316746      10.21472052       3.26354776    -154.86335064
C       13.20886345      11.98665742      13.55804385    -156.86790819
C        7.26830568      10.20730543      13.34331969    -155.84621387
C        6.21942168       2.84367786       3.33869823    -156.87659403
C       12.63473888       8.71688815      12.26972868    -156.04834176
C        2.66473111       6.23122316       9.74797296    -157.02553262
C        5.16610654      11.80045970       7.09271585    -154.63738312
C       14.59633487       1.21544741       8.14410636    -156.90697384
C       11.54866010       0.67300480      13.44141664    -155.94152574
C        9.92954558      13.89824261      14.25000412    -153.27750266
C        5.69121992       4.38471765      10.23693594    -154.65781986
C       12.79875103      12.68370530       4.76607983    -155.32468211
C       13.95354990      15.01114699       2.06117000    -153.44896857
C        8.31408638       3.69751676      11.31844929    -156.54366296
C       10.20840949       6.50373128       7.34236702    -157.08428671
C        2.28199632       8.82029652       8.82453371    -155.73262641
C       14.41098757       6.09806493      13.20844570    -157.22132560
C        9.48279040      11.27191478       2.70886355    -155.72478618
C       13.28552081       3.77277167       6.92379513    -156.56648580
C        3.83531501      13.54397459      13.01832409    -156.25303361
C        0.27913545      10.92729980       1.98736229    -156.27726994
C        6.48664824       0.57939121      11.96218913    -156.26603615
C        9.79837167      14.44178181       9.02218975    -156.22371174
C        8.96688247       0.24727595       9.67071881    -154.32961257
C        6.92064708       9.92211557       9.78530202    -155.53509008
C        9.28949091       8.41467493       5.58717001    -156.89026091
C       13.02060681       9.29035625      13.68650238    -154.01119445
C        7.73062209       9.26925981      10.77061322    -155.78304482
C       10.78090781       2.77609167      13.20082173    -155.44212402
C        1.78496179       7.25372914       9.08518068    -157.67340383
C        4.28960463      12.53526931       9.59588165    -153.86427023
C        8.32793185       3.39096190      13.23107886    -157.46458924
C        4.34504619      10.30438785       3.17616314    -156.96603071
C        8.09281247      14.59708086       7.69608301    -153.83145108
C       14.30117866      10.82647254      13.28808700    -154.74366957
C       13.97818231      10.70581701       5.26569546    -155.87743448
C        3.85048833       4.86223722       5.18729250    -155.00806907
C        0.52711411       2.42061515      11.08494124    -152.56321170
C        5.58236587      11.49509842       5.53542853    -155.02025575
C       10.93402858       2.48347180       6.78529566    -155.17530921
C        6.68145462      11.80105648       7.75856667    -155.69260954
C        4.34164451      12.84043664      11.60918928    -155.60656882
C        9.57741107       9.83471603       1.04120632    -154.53784741
C        8.28396353       7.95605860      12.16259040    -153.40657541
C        7.79465740       3.37495308       6.64266343    -153.89590938
C        1.91992530       9.19771990      13.93798866    -156.40034987
C       10.10073409       0.42270165       5.55780806    -154.87947027
C       13.71277595       1.20324459       4.80023100    -155.19753855
C        0.97346198       8.46723699       9.66148352    -156.14437909
C        0.88750667       6.85033058       7.92739787    -155.81559604
C       14.54451879       1.38548412       2.02900315    -156.89396258
C        0.91708197       4.23422274       6.78343070    -156.75846982
C        7.52517797       7.17963796       1.57669785    -154.05837614
C       14.86101016       6.25311034       7.60957865    -155.53168842
C        4.13697621       5.53687574       6.21324493    -155.35592214
C        1.13394562      11.87104475       2.90683291    -157.04613943
C        7.85808100       0.22047422       0.66669378    -157.62728702
C       10.05416974      14.02711889      10.95393145    -154.36133162
C        0.15973169      14.74105586      14.06778996    -155.24854733
C        6.52084416      14.84330049      12.96058490    -155.36294535
C        8.21422890       4.99732009       3.11675293    -155.14947833
C        0.21157015      10.11789174      11.33128023    -155.65918660
C       14.02434382      14.14580501      11.70855441    -154.92399579
C        2.15940123      11.71485052       7.04589787    -154.98841251
C       14.58125107      11.75840109       4.10279520    -155.40091407
C       14.42493748       1.18986462      13.11756987    -156.24069942
C       10.37180993      11.50854106       3.64983343    -156.90680893
C        2.22155666       9.97554298       6.59847131    -156.99395712
C        9.83620800       7.66223023       6.47559275    -156.11731178
C        3.49407188       1.39348555       8.90853156    -155.04576808
C        9.43364495       4.59054968       9.44947474    -157.21710649
C       13.67308958      12.43885828       6.98193716    -156.66775176
C       10.92237630       5.36931270       9.15412457    -156.20645737
C        7.86203471       2.36599417      11.26436542    -156.13726177
C        8.68598947       0.12142121       4.99993104    -155.61789598
C        1.58280000      14.72028765       9.81919956    -153.37270318
C        2.76982540       1.85524844       8.03210425    -156.74794419
C       14.02834230       2.73136244       5.15649826    -155.46809792
C        1.87862760      12.55039788       8.00310038    -156.83939529
C       14.73489403      13.37603857      13.48923425    -155.13230305
C        2.86874294      10.00499445       3.04779413    -157.02713916
C       -0.06899819       0.80201387       4.64739370    -155.56874072
C       11.64104282      14.09301915      14.21688241    -154.53828496
C        4.69348062       5.38374004      10.71806608    -156.81265651
C        6.22901504       0.84566589       8.79378423    -153.94389548
C        4.98389237       0.50303224       8.83224719    -156.91591080
C       13.30103729       0.35147506      12.07271419    -156.02732276
C       11.78110886       1.71664453      12.94566521    -155.66585917
C        0.06984175       5.20641954      14.19445812    -156.28252052
C        2.35435681       6.43659268      11.14796200    -152.91078759
C        9.89536457      10.75220233      14.80980579    -154.00281400
C        6.74380400      10.59969326      14.74899313    -155.34706430
C        2.63442922      11.25529425       3.15958736    -155.58866110
C       10.90484567       3.79774723       7.72807082    -157.55985912
C        8.81198625       6.10389853       9.69557501    -156.73645372
C       14.12327628       8.97340237       9.39054196    -155.20552338
C       11.61139739      12.04770879       4.07480586    -155.91505865
C        9.75334405       6.84255742       1.19189071    -156.73554391
C        4.31434147      11.71511907       4.61449578    -156.21549413
C       14.59008352       4.79063764       7.05708764    -157.71566548
C        8.16936539      13.87717601      15.17526358    -154.10159407
C       14.07880069       1.06329940       0.77206557    -156.42278044
C        4.36848503      11.47752302      12.27424935    -156.73295874
C        9.02365188       4.70965356      10.69344859    -156.14570901
C        2.34316704       9.69050232       7.88583162    -155.81016126
C        0.32582065      10.21876376       0.98062940    -155.96986307
C        8.05120145       0.81041216       4.24205558    -155.61918051
C       10.17345266       3.87040612       5.64971335    -155.13182430
C       13.84096592       2.62540281       9.10718722    -153.28029733
C       13.93910764       1.63994241       3.21616282    -155.62811928
C        7.33686165       2.39205887       3.49029719    -156.28419717
C        7.55570365       6.44608160       9.30857319    -155.13408410
C        5.41641416       9.60832467       3.22759131    -154.02391770
C       13.53012912       5.40605990      11.97169297    -155.59933955
C       11.37186178       9.19045401      12.29649461    -156.02209058
C        9.62334879       3.94372147       8.17315499    -154.64245515
C        2.58741728       8.70346043      12.37270438    -155.43880392
C        2.35665444       4.10033345       6.67491980    -154.73518840
C       10.11932403       6.67756058       8.57549426    -155.91807372
C       11.02569515       5.26057801       1.13677589    -154.18241343
C        6.82732442      11.00009296       8.86542858    -157.38974205
C       14.86303924      13.44201343       6.45777864    -156.18416731
C       12.23078829      13.25398059      10.23678674    -154.10960374
C        7.62021639       1.19828081      11.77329094    -156.35778892
C        0.76751954      13.02627629       5.46714111    -154.68133142
C        1.48978021       0.57782465       5.62406640    -155.40216060
C        6.33888363      13.49769371       7.60196961    -156.02477049
C        5.24759788       3.23502131       4.00768218    -153.71174371
C       13.52372857       2.09775307       8.09797468    -154.55747618
200
Lattice="14.919689298659158 0.0 0.0 0.0 14.919689298659158 0.0 0.0 0.0 14.919689298659158" Properties=species:S:1:pos:R:3:gap17_energy:R:1 anneal_T=2400 density=1.2 run_id=107 time=2 pbc="T T T"
C       12.49330023      12.85999635       0.98050706    -155.57737378
C        8.95781129      10.66851779      12.34162667    -155.24620059
C        8.65040602       6.80263234       7.27678006    -156.46430206
C        0.31142166       8.18834324      11.16109133    -153.93542562
C       12.49859672      13.40947359      12.12969248    -154.65114695
C        9.26476898       9.23293036       3.74048546    -154.81592946
C        6.30462803       2.47204332      12.46819039    -155.03889449
C        8.68639231       2.84497587       8.15977203    -153.92110534
C        0.97598938       0.45103116       3.51607842    -155.14460043
C       12.57179271       7.82710772       8.88864361    -157.87733346
C        8.74313188      11.40634118       8.43444351    -157.11159042
C        0.46943460       9.84999379       6.93784948    -154.51320071
C        7.50147058      14.36485589      13.01271429    -155.57430239
C       10.64843589      10.61112174       6.47786054    -156.16715187