200
Lattice="12.38075404960777 0.0 0.0 0.0 12.38075404960777 0.0 0.0 0.0 12.38075404960777" Properties=species:S:1:pos:R:3:gap17_energy:R:1 anneal_T=2000 density=2.1 run_id=12 time=0 pbc="T T T"
C       11.01268073       0.01510402       5.14774420    -154.35139179
C        1.72534474       8.72547260       1.44561399    -155.89881134
C        1.85299032      11.93557928       2.87061401    -152.08374517
C        3.01389648       4.01596995      12.18695811    -153.74906591
C        3.61950107       5.35704085       2.82547379    -155.68244322
C        9.43984211       0.90888354       7.91603129    -155.52376499
C        9.62287918       5.71251706      12.07407039    -154.28252809
C       11.92943842       5.70338006       9.13936121    -155.79124417
C        5.07317492       2.96215731       0.78595627    -154.86313938
C        4.19276712       4.43281756      10.22013914    -155.78623230
C        1.75031672       7.56534643       3.25710401    -153.96052741
C        1.28624892      11.04614591      10.58287047    -154.22338179
C        6.07275986       4.22972367       0.45303036    -153.66331288
C        5.96013214       2.80951499      11.16871537    -155.87844402
C       11.14880712       1.67308558       5.99424112    -155.17011305
C        9.39883706       1.37291420      11.10583352    -152.57141165
C       11.06511322       6.27149573      11.01057600    -153.47643367
C        3.74925137       7.13509046      11.61897863    -152.38697794
C       11.20861854       1.06530446       8.36931545    -154.01506162
C        1.17317549       2.59186134       5.84200737    -154.96259561
C        5.74641557       9.93866269       1.79201510    -154.00300952
C       10.72257490       1.19756310       7.25644661    -156.36843537
C        0.52256934       8.35663756       1.85566456    -155.10467619
C       11.55386825       9.56861434       9.65847385    -154.76105945
C       12.07904745       9.33196860       2.49701238    -151.68528063
C       11.48690075       1.68913104      11.12384752    -154.25334720
C        1.50671301       0.70324292       6.37364933    -155.03282884
C        5.03866976       5.91455859       0.96361142    -152.80090529
C        6.10394698       0.07071639       0.72655093    -128.22609271
C        4.96380334       3.40714637       1.98651675    -153.14368815
C        7.24417729       1.29240215       3.26924953    -153.07791814
C        2.83171369       5.14979941       8.31485252    -154.89590225
C        8.30406888       0.20615813       4.89149974    -153.43819314
C        0.89998920       7.11744789       9.80565625    -154.10879759
C        9.38873436       4.00964339       6.05535252    -156.29743509
C        9.78684989       2.78558300       9.54476900    -153.27372636
C        5.54989586      10.09246880       6.72624082    -150.02170399
C        8.46209682       0.10451288       1.46789934    -151.95909282
C        7.93642239       7.66944381       3.43240311    -152.58773316
C        9.64125222       8.00466510       8.39738262    -153.30246880
C        2.75087974       7.33291015       6.97841202    -152.99675896
C        7.01882280       9.71426153       0.21944020    -154.77981745
C        5.43157299       6.30218761       6.29233253    -153.16062383
C        2.90230875       9.30005102       4.09846292    -151.82625006
C        5.26839465      11.91117681       5.42617498    -126.43604020
C        1.12790155       3.30498039       7.47655166    -154.10527504
C        9.16999120      12.29044883      10.82498850    -144.01224371
C        0.89342864      10.10269530       6.69210708    -152.62496840
C       10.62965734       0.41873815      10.57243349    -145.56732923
C        3.00625756       4.08327173       8.00616318    -155.81606957
C        6.77950283       2.41958314       4.07802229    -154.92697936
C       12.25523797       5.85421479       7.96718856    -153.83924486
C        5.91639094       9.50957052       4.76087040    -149.45069516
C        6.08116639       4.75524954       8.37940577    -153.75655878
C        5.78901774       9.16216656       6.01575887    -156.03600237
C        4.15983431       6.82210500       3.14788100    -153.93441507
C        8.59272616       4.32561261       7.05111181    -153.36179782
C       11.19377402       7.49870083       5.06206939    -140.68133676
C        2.65318321       7.25284381       2.39468545    -155.96920164
C       11.51405174       7.10949944       0.98576554    -153.86131993
C       10.80434978      12.07483800      10.23986168    -145.17738046
C        5.96387113       2.18020127       0.89002765    -154.90587996
C        3.15542088       8.43820197       8.82136154    -152.90828862
C        8.72300883       0.09942092       8.22460920    -134.59078755
C        8.93031218      11.37376542      11.26029581    -148.95240158
C       10.89770066      11.14898045      11.24720935    -151.75397833
C        2.33587687       2.54658492       2.23300518    -150.27623491
C        0.47929242       5.22851624       1.80659963    -153.66615797
C        6.78410847       7.08419318       7.69561672    -154.43045014
C       10.63447345       3.29564530       3.81459699    -150.87607869
C        0.54748313       9.22494937       4.43003189    -151.77178013
C        2.59480796       6.02489587       0.82846435    -150.86534948
C       10.06589970       6.58536022       2.03209030    -156.35409393
C       12.34094993       8.29501855       3.86450381    -155.28457859
C        5.14102145      11.03994315       4.12265491    -148.22433692
C        7.20645313       7.18916960       0.94234376    -153.29889973
C        2.08485708       4.49212137       7.39652247    -153.98191805
C        8.26831326       4.29265504       3.58871013    -156.68603956
C        1.87785087      10.01172152       1.48732475    -156.02192343
C        9.07115564      10.23611031       0.66834529    -151.61044739
C        5.12347793      12.13457514      10.37171671    -156.22074841
C        6.00670854       7.94947170       5.65781889    -152.46626763
C        0.27181574       0.09508308      11.04891919    -153.52583912
C        0.04223830      10.21871535      10.50223462    -154.63434421
C        3.48715080       4.67569081       4.46683987    -152.01973681
C        4.48715669       1.29411070       3.93124845    -152.66901243
C        1.79555600      12.04314327       6.62409960    -153.89961620
C       10.85425660      11.38021579       2.26614846    -153.27390109
C        7.14613410       8.40435299       0.50211758    -156.97111307
C        7.83124788       5.60304643       3.13751831    -153.86475152
C        8.51745118       5.15918402       4.58325610    -156.80761460
C        3.71657856      10.17148277      10.95054172    -155.10872147
C        8.86433514       7.27075877       2.19191346    -154.89400566
C       10.21704395       8.29709851      12.22376609    -154.36281500
C        8.34003497       1.25091425      12.21165771    -152.64363109
C        0.20354703      10.22044866       7.53996588    -155.64874434
C        4.61610224      11.32119674      11.50266145    -155.82602176
C       10.83823590       5.14931656      12.33303862    -155.62180779
C       11.79653103       4.18704721       2.58463098    -155.31809262
C        9.08574017       9.44126590       0.05582866    -153.83428986
C        0.64971473       1.18988084       8.70851097    -149.69602287
C       11.17516574       3.47298722      11.69348601    -154.36306595
C        9.16107706       8.93978346       4.20254792    -151.33965719
C        9.98073250      11.56720232       8.25900293    -153.34411319
C        3.35400818       9.17417589       6.61351406    -153.13495344
C        4.10417044       7.89172787       7.28638328    -155.62346926
C       10.57677914       7.49045525       5.38092333    -140.89642995
C        4.31503945       5.68370705       4.60998615    -146.82102257
C        3.12730419       6.02473492       9.98329531    -154.10259959
C       10.14854124       8.24466602       3.94011307    -154.90760283
C        6.43698926       7.29214033       9.73447930    -154.20423854
C        9.85437452       5.98467080       4.52831032    -154.03247880
C       10.74562786      11.58893054       3.38171630    -155.92337611
C        1.84179811      10.92771161       8.52668722    -153.24590676
C       10.26552698       8.22884342       1.65076308    -154.26077829
C        1.64691267      12.06853619       9.54444710    -157.52863684
C        9.72810321      10.89563308       3.04073796    -154.06004339
C       11.65676470      11.75052415       7.90912282    -154.63452936
C        3.07490884       6.75242612       4.30012064    -153.83165086
C        9.55015463       5.17410283       1.60995611    -154.11656669
C        6.54830462       8.42031178       7.42486201    -155.67168749
C        2.68839408       1.15084804      11.03166042    -153.73824490
C        5.33224220      10.18965772       5.41145426    -156.29776758
C       10.53386745       3.21452660      10.39372969    -157.87477665
C        7.50292267      12.29718396       0.17628213    -154.17459383
C        3.41827667       9.17585968      10.39312303    -155.83248854
C        6.82952107      12.22913934      10.42809866    -154.72956353
C       10.87797812       1.49818267      12.08905110    -155.55680800
C        0.26924302       3.98904181       5.02064338    -152.47559564
C        1.17704076       7.58782988      10.89777495    -156.08736164
C        6.19209795       1.72950468      11.89349709    -155.87898240
C        0.02168180      11.10756683       8.89750318    -155.15356229
C        5.20145191       4.99334382       9.58563787    -156.43504422
C        1.23610563       0.23533956       4.83952533    -156.17502101
C        1.20036982      11.27745553       3.96673169    -156.33166536
C        2.80516935       6.17441823       1.89493631    -156.27426838
C        6.15475760      11.82503152       0.36406845    -139.23736869
C        6.94884678      11.42177798      11.71889132    -155.75330294
C        4.57525814       4.39442484       2.15625689    -155.17942338
C        3.91588394       7.99216054      12.25127612    -155.93206698
C        2.31937332       2.60213736      10.51897340    -155.19967408
C        8.21526173      12.36002867       7.92925393    -130.05888722
C       10.22308576       3.13524025       4.75027248    -154.82404613
C        5.06515219      11.47027340       5.13478155    -130.68481784
C        7.76975268       3.18034334       4.05075987    -156.04620573
C        5.83943217       0.56142015       9.23729298    -155.27980017
C       11.76822862       4.21422297      10.10380957    -154.04287037
C        8.76013872       5.13481870       9.86127060    -152.22274963
C        5.02179479       7.98208261       0.60811788    -155.21940750
C       12.04429468      10.83523976      12.30947805    -152.15160260
C        6.30652088       4.57247247       5.32878797    -153.34520486
C        6.81707841       4.89709584       0.62764233    -150.97847483
C        8.00650984       7.00096975       9.79056411    -152.67884717
C        4.36391866       5.35908367       6.27213952    -153.28373517
C        7.26507600       0.56530399       6.16067560    -154.32082274
C        7.62504642       9.64062080       5.95489508    -153.07548479
C        7.06521349      12.17202692       1.27432625    -151.98210996
C        3.30375470       2.86249224       6.61253598    -153.89726218
C        3.02632676       1.91259127       6.95398479    -153.65353639
C        2.71861550       2.72746774       8.99246357    -154.95138037
C        6.55075601      10.19160150      11.17309816    -153.13532255
C        4.40565419       4.27729053       7.88500512    -153.43935246
C        9.12469002      11.69732405       9.18682902    -155.03506893
C        9.94989204       5.77042185       6.74248437    -152.65271535
C        6.10525934       5.20226904       1.88225842    -155.34814753
C        6.27096335       6.41672197      10.81678006    -151.37030350
C        4.77403114       5.87446970       5.19898814    -145.92584229
C        1.68747202       7.29501266      11.80335282    -152.74780968
C        8.99325593       0.33527949      11.46672012    -146.18606878
C        7.53800972       9.24841089       6.97265497    -154.79220970
C       11.23607905       1.23334348       1.23558564    -152.77114191
C        4.65121406       3.54593463      11.45473555    -155.93136123
C       12.24905997       8.11827090       2.73151624    -153.09365350
C        5.93210211       8.46961194      12.33300148    -156.06824304
C        5.15024512       1.40610700       1.60228005    -153.67276230
C        6.48186950       2.24004983       9.30413667    -154.31637834
C       10.19707379       9.28034086       4.42936333    -150.04607991
C        8.19935246       7.47844591       6.43923018    -152.97155107
C       10.77686450       8.38697041       9.11386924    -156.22709444
C        0.16513078      11.77470376       4.42634243    -155.69791860
C        6.67463784       6.06658187       9.74833336    -156.29991154
C        2.53632127       8.90070980      11.24525319    -154.70197081
C        0.55428512       0.18478028       8.81217503    -154.76664603
C        2.34033394       0.54917435       8.37431728    -153.25907463
C        5.55075013      12.24278293       1.13986136    -135.70204222
C        6.27494996      11.93134506       5.39254885    -151.65664858
C        2.23685560      10.82414660       0.27387095    -153.99167927
C       11.64109066      11.22705348      10.49187193    -153.58141501
C        9.46051797       8.13753536       3.00108240    -157.50377523
C        3.01405743      11.87214029       9.96773270    -152.87423512
C        1.73856739       5.56247470       9.11161594    -154.78007735
C        4.78231387       0.04044594       4.09973813    -155.70198069
C        8.20306669       1.44810252       8.65636324    -151.69962707
C        4.78252434       4.05615788       3.71068532    -154.03347068
C        9.65318727       5.02237669       5.34869622    -157.18008398
C       12.19308658       3.97591821       1.40287562    -155.49042558
C        4.04107812       5.56451753       1.19208338    -155.42973318
C        8.08018770      11.62126907       5.29040763    -153.53822408
C       10.21952010       2.45548733       5.66824348    -155.50441851
C        7.67246471       2.71143466       6.41652388    -153.35793368
200
Lattice="12.38075404960777 0.0 0.0 0.0 12.38075404960777 0.0 0.0 0.0 12.38075404960777" Properties=species:S:1:pos:R:3:gap17_energy:R:1 anneal_T=2000 density=2.1 run_id=12 time=1 pbc="T T T"
C        4.51263628       9.32489919       7.80524830    -156.49489512
C        8.55819624       9.18030437       5.84891583    -157.16561723
C        8.92294563      10.52844467       6.20177970    -155.89607227
C        4.29129316      11.04188693      11.53844183    -155.54657818
C        6.32640437       7.31650565       4.64251039    -156.19494055
C        8.60920494       5.13112923       8.86842079    -152.78232698
C       11.72604739       0.16725903       3.27477135    -156.94441393
C        5.88567429       3.07328696      11.78148841    -157.16697095
C       10.42561013       4.28031143       2.43408101    -153.36117407
C        0.87930963       9.48133002       7.35747357    -154.82327414
C        8.14590475       4.22123047      11.14867093    -154.56823676
C        9.63168190       8.22870723       5.23127715    -154.15827603
C       10.98497260      11.78640357       2.39204835    -154.47826787
C        7.05626220       5.03016418      12.42445811    -156.21739810
C        9.32881151       6.55048364       3.66129849    -156.69645942
C        4.06098637       9.72156617       9.22351320    -155.72302238
C        2.19660576       1.07539353       5.74938695    -156.17904027
C        1.23312558       8.68647323       5.45238504    -155.61943143
C        4.33424200       3.00462330      11.76249633    -157.31120838
C        7.09553395       0.34058959       4.04728088    -154.81394214
C        7.02004850       5.44108141       2.95092797    -156.13902370
C        4.14988019       6.00487619       4.92992960    -156.75667279
C        7.35426695      11.02251105       9.81743035    -156.13672227
C        1.43723221      11.01918062       7.61265329    -155.52993344
C        5.51430119       6.34262316       7.59207648    -157.12701292
C       10.12213309       2.63930439       4.16437805    -155.32682534
C        2.03488835      10.78960430       3.90059371    -154.09875955
C        6.41800957       6.50862431      10.16682761    -156.55134320
C        3.71821282       7.64541276       4.77318925    -155.22884953
C        2.32014093       8.55418487       0.45837018    -154.52385981
C        0.59640568       3.10075985       9.26982960    -156.05387073
C        3.77487953       2.61667237       9.14976105    -155.14319318
C        3.88794057       1.89633534       0.44090218    -154.58822534
C        9.66839083      11.96664259       9.64365409    -157.43319220
C        7.56117411       3.74406383       5.67147486    -157.33696565
C        0.88884900       0.92662887      10.23698934    -155.40998938
C       10.14631270      11.32650808       5.91075769    -155.22691926
C        5.42691783       3.51234564       3.70318258    -156.62082160
C        9.30253955       7.01883518       5.19710627    -157.85511673
C        1.57057294       6.81617462       3.80081721    -155.94864522
C        8.50300284       3.33093045       4.70946551    -156.50551286
C        0.64782543       0.34245166      11.99321169    -156.52018222
C        4.60437767       1.35626208       3.74769139    -154.73932216
C        0.41437022       5.69145740      10.04061820    -153.34013223
C        7.86874919       1.13131121       7.10600807    -156.01391509
C        7.04950231       3.65437765       0.29012811    -155.40900382
C        9.97610209       0.62221213       1.10194282    -155.33228578
C        6.90166373       9.08540589      12.42198196    -157.31479669
C        4.39966190       3.13688689       0.62394667    -154.32191763
C        6.97092166       8.50391901       1.29728017    -154.12371895
C       12.26145310       4.32098221       5.61271580    -155.66374885
C        4.93541427       9.56182968       1.76071656    -155.98545966
C        4.52490561       0.06010918       2.98878831    -157.77586870
C        9.23724345       7.20663884       7.92498257    -157.24308032
C        2.45007694       7.44712261      11.31950057    -156.68819277
C        9.46257318       3.17433867       0.22844348    -155.28307561
C        3.53897664       0.64043660       6.20009592    -155.53419507
C        8.95653462       1.22331878       6.36622087    -156.51775514
C        4.30184156       2.85739137       7.66575434    -155.22876725
C       12.37957788       6.54041808       4.53540449    -154.44634020
C        7.85721032       3.13543834       7.03807487    -155.71417697
C       11.41369335      10.57266873       6.70458688    -157.01745375
C        1.22847784      12.01058188       8.12630601    -155.91375250
C        1.59497540       9.09222768       2.30254788    -153.43721711
C        6.15291286       8.62054571       3.07474789    -156.78658366
C       10.75906098       6.97431399      10.85523468    -156.24373185
C        6.90886932       5.03028799       5.77248943    -156.67491725
C        0.02672893       1.13693207       3.47626812    -155.07888115
C        1.56945867       4.95856628      12.31397226    -154.92952003
C        5.73325482       5.37810051      10.06566447    -156.57626486
C       11.19134739       1.77075735       4.65009979    -157.57153061
C        3.68853615       2.35205851       2.33255882    -155.80862940
C        3.54016519      12.43733410       2.14127617    -154.56692172
C        8.76660147       1.97430933       4.19577564    -156.11705055
C        7.46211570      11.64642677      -0.28855576    -155.64675402
C        5.86260894       3.80688378      10.55082908    -154.47757319
C        6.74784524       7.52938034      12.25219230    -156.85569103
C        4.94058943      10.53780452       4.94447698    -154.82659242
C       12.41975342      10.96148631       2.45282547    -155.30447020
C        9.29958055       7.89105930       2.80578839    -157.31698500
C        2.92890260       9.54043574       8.18972023    -156.42131942
C        6.39160142       7.75942713      10.77159030    -156.36216078
C        6.04594315       0.94945898       3.12838131    -157.37235313
C        6.00934564      12.08158551       7.96526954    -155.29318689
C        1.48455146       2.77649552       6.64707828    -155.77331372
C        0.52203697       5.61012822       2.05571278    -156.73496869
C        3.42780985       2.77362319      10.45326874    -157.64518558
C        0.62707405      11.06948363      10.95745018    -154.71412581
C        9.00047391       0.47956603       4.31139951    -157.03680246
C        3.99196367       3.53936044       3.22415883    -156.78037895
C        7.27195970       9.77506341       9.27016388    -155.18605306
C        8.63144078       6.86195865       2.11202045    -155.68029222
C        6.26381966       9.93046663      10.30474921    -156.15876055
C        4.99460666       5.80085374       8.77276709    -155.78351664
C        6.46830019       9.59572819       3.81021420    -155.19896697
C        9.46933307       6.58254979      10.48035783    -154.72910159
C        1.63317003       1.69025769       3.48143090    -156.80525216
C        1.88092130       0.91874109       8.88233676    -156.75684752
C        2.41261278       4.03189160       7.30653914    -153.34372028
C        2.86147702       1.70903929      11.31889392    -155.31426910
C        0.22528515      11.37667490       5.16812292    -154.16750592
C        7.62315217       6.40290505       0.22422536    -157.65036436
C        1.99706515       0.74856763       2.38580845    -155.50399383
C       12.08746637       3.85207353       8.09482175    -156.70273661
C        2.99012543       6.64878682       0.30953495    -156.18540496
C        5.84650158      12.57562712       9.63464090    -155.80472112
C        5.04724962      10.21112595      10.43727280    -156.38461199
C        9.77110157       1.16313222      10.60537868    -154.95424656
C        2.12557738       6.35644008       1.32154645    -155.53584456
C        6.69653939       9.60948321       6.64957919    -157.20495687
C        9.12894900       5.11122098      10.17285704    -158.89935349
C       12.22318419       0.22189778       1.04060114    -154.73114704
C        1.80370253       3.38743621      10.36300066    -156.41197970
C        7.98854536       9.78267757       6.90737125    -155.29931450
C        9.80819431       5.77308371       5.53825795    -154.62640710
C        0.24840621       1.91048654       1.22819556    -155.58982367
C        8.38206763      11.88330773       3.66948217    -156.33831805
C        5.69197739       2.19687814       6.68919761    -154.79513820
C       10.43962515       0.35014134       4.10220190    -155.76436565
C        7.45483582       6.27069098       5.83587889    -156.07249041
C        1.87411188       0.55159974       0.52067385    -154.58966119
C        0.85280243       9.93347516       1.97081795    -156.42622854
C       10.65181889       0.61121183       9.49270793    -154.56636558
C       11.73948051       2.05010430       5.93784678    -155.89824454
C        5.54179884       6.35355536       4.95982912    -156.35349246
C        4.59058551       6.52145077       0.94478153    -154.64109878
C        7.23038513       0.37798814       0.88232806    -154.98817145
C       11.71400092      11.86008144       6.31350362    -155.35525446
C       12.05159932       3.17971192       0.61173306    -155.56596195
C        1.24991141       2.48746682       8.41306904    -155.63159168
C        6.56482055       0.82574677       6.59689908    -157.46303255
C        3.41572623       0.59310745       9.17623110    -155.80115881
C        2.21712067       7.70869080       4.57099916    -157.47030140
C        1.93089002       2.30165646       2.25040014    -155.45066406
C        1.25646082       4.09874767       1.46568319    -154.90639905
C       10.78927002       5.06464458       8.75236360    -154.56709195
C        9.02023360       9.22733885       2.79156290    -156.28955055
C       10.70925321       9.96743557       7.47309743    -155.37503283
C        5.56803366       0.70203828      10.63812577    -154.63507670
C        5.20080812      10.82471612       2.95165843    -154.89359282
C        2.49180008      10.51700486       1.46090422    -154.67487961
C        3.40679971       8.32322191       6.69333278    -154.14833500
C        6.53048872      11.99903064       6.24981702    -152.85310165
C       10.50747168       7.75177582       7.41816402    -153.85850421
C        7.04182624      10.41574267      12.15198248    -156.60293352
C        8.27602647      12.01200567       9.48176335    -157.43838123
C        6.98660808       8.94711286       5.29951987    -156.25157594
C        4.43819081       1.64384224       6.70395546    -157.54738718
C        3.96317842      10.02080900       1.01572449    -155.77620510
C        8.43266777       6.97649300       6.80685191    -155.50685161
C        1.67475698       6.97771870       7.97178182    -155.32020314
C        5.63162121       4.77590064       3.08288204    -156.37899002
C        7.34380521       0.82868101       9.75643038    -155.91718686
C       11.64564678       9.60840608      10.62230317    -156.43876167
C        9.32782105       1.86646058       0.26954759    -155.89441781
C       12.12920189       5.22285824       3.21436565    -155.27528252
C        4.36296535       5.82895805       1.97054558    -156.36296849
C       10.38597934       4.08198413       7.94148612    -157.30103545
C        8.25531347       8.12776694       8.78923349    -153.79499600
C       10.20623555       4.32582308      10.27290591    -155.55826286
C        3.65112151       9.84874128       5.27392885    -156.21599566
C        5.42208933       5.92609745       6.31272364    -155.72947015
C       10.02046234      10.53300079       8.63176268    -153.87753436
C        3.89770899       5.01946721       3.34146647    -157.10995737
C        1.14657049       6.71081440       2.12209839    -155.98123839
C        3.47989568       6.63178805      10.23208657    -154.74551792
C        6.30709039       8.29144051       9.65416535    -155.72742079
C        6.21801087       2.24905064       3.18450327    -154.72139558
C        5.38583848       9.30121481       6.54881224    -155.74408635
C        5.90885106       7.22420713       8.61693053    -155.76850019
C        8.05968517       1.07772855      11.24812553    -154.77377278
C        3.35175488       6.77845046       8.76114156    -156.14577786
C       12.05547450       7.22757470      10.48696915    -157.56331292
C        1.09073081      11.86334996      10.16868472    -156.79653024
C        0.43274573       8.52220538      10.43448713    -156.61560774
C        3.01618692       5.38752227       4.58413514    -154.36685308
C        8.57991208      12.32474352       1.61079801    -155.33313517
C        4.49818794       0.24289182       8.16894533    -156.00323431
C        8.96174692       6.38328155       0.68046234    -154.55096311
C        8.38641327      10.31831852       3.32088966    -155.96545682
C        1.00995506       4.13768515      11.38816424    -157.44092967
C        9.55909354       5.01294255       3.37931444    -158.08592424
C       11.86918129       3.73867820      11.54136369    -156.11675096
C        6.40484883       7.27879387       3.19845638    -155.46229586
C        1.87307190       7.34244333       6.46376884    -155.61181793
C       11.27391464      10.35383890      11.65383046    -154.02810940
C        0.83855219       9.80022110       4.57290579    -155.65847859
C       10.11830744       4.05707406      11.51392794    -156.34266659
C        1.68437683       1.49289608      11.95797606    -156.41233820
C        7.97304466       4.61024615       3.31556593    -156.08955213
C       12.30939138       3.56375053       6.69657653    -157.44315495
C        9.59333870       4.69519050       4.71987772    -156.32577914
C        2.48993059      10.32510317       5.29275998    -156.42374050
C        9.20604395       3.70705776       7.45004446    -155.59049612
C        1.77163638       8.69279979      11.34370495    -156.61213045
C        2.19560292       8.29359476       8.38139907    -155.83979039
C        0.06826240       5.23595708       4.87134387    -157.49619344
C        1.05306856       1.17341444       4.94727503    -155.41800600
C        4.64249801       0.13240597      11.63280794    -155.67708831
C       10.30472445       1.68719964       6.50344915    -154.95820388
200
Lattice="12.38075404960777 0.0 0.0 0.0 12.38075404960777 0.0 0.0 0.0 12.38075404960777" Properties=species:S:1:pos:R:3:gap17_energy:R:1 anneal_T=2000 density=2.1 run_id=12 time=2 pbc="T T T"
C        4.11850736       8.79499054       3.91434872    -156.16208406
C        4.45492959       8.64362344       5.67120248    -155.22898233
C        8.85581718       7.50366551       7.96591334    -156.31438194
C        6.76843443       9.43484029       0.57478394    -156.87158489
C       11.85360630       2.56187515       7.52918224    -155.70431136
C        2.31648861       1.85565218       8.19989721    -156.33854732
C        3.72370987       8.45848164       0.65053310    -155.42126180
C        2.25978475       9.29706726      12.38632539    -156.78250700
C        1.34532988       9.20824773       7.99250720    -156.08046769
C        5.50355469       9.05166833       9.98492957    -154.44048001
C        8.62269997       6.41103920       5.71317324    -155.09180839
C        4.93597141      10.35590649       7.09911199    -155.74339922
C       12.57859850       2.35644130       5.35632277    -154.67733695
C        9.75399137       1.75562807       4.55752890    -153.80231598