200
Lattice="12.800757219458102 0.0 0.0 0.0 12.800757219458102 0.0 0.0 0.0 12.800757219458102" Properties=species:S:1:pos:R:3:gap17_energy:R:1 anneal_T=2600 density=1.9 run_id=166 time=0 pbc="T T T"
C       12.21793874       2.76790773       6.18702839    -150.64199935
C        9.41324163       7.15706977       2.45759178    -153.24316533
C        5.41095688       8.40507960       8.03289758    -154.93033856
C        4.85559603       6.84744506       9.72278954    -154.12011797
C        8.03947717       7.05835033       4.09053317    -151.76920122
C        1.19247758       8.57760820       4.97026521    -151.15755974
C        3.23270323      10.88013161       4.07894849    -154.02149582
C       12.17983089      11.56731466       4.30224490    -153.75450337
C       11.11433426       9.17989663       4.46833472    -148.76760094
C        3.99758687      10.60378886       6.59448929    -153.21805708
C       12.31903912       6.60645800      10.32799655    -153.82757202
C        5.00613293      12.68489757       7.66687273    -154.47298521
C        8.75278656       3.05406866       1.76494280    -152.33125117
C       11.79327362       3.87140981       6.55151715    -153.48405283
C       12.60962911       2.31601540      10.85709024    -154.75125650
C        8.79237931      12.73424448       8.45778031    -154.46154125
C        5.96817384      10.30025730       0.06181332    -154.19622574
C        7.35361260       2.40519828       4.28589833    -155.68902813
C       11.36329619       5.42288719       9.44989020    -155.49480980
C        6.93847124       1.05928442       8.92519996    -154.29758550
C        0.84162291       9.39369488       8.82717176    -154.83507706
C        9.41092470       4.20137493       9.90255058    -152.65649685
C        9.41383047      11.25086714       9.96672077    -154.15490480
C        3.26866056       3.44564382      10.77741833    -155.09492316
C       12.77452847      12.69001787       5.96711138    -155.74083123
C        2.28848097       4.14141618       5.82262923    -145.47079456
C        5.88791310       6.02107937       5.28365335    -151.55562238
C        8.21273542       7.08075166      10.27364453    -155.86645248
C        2.64768302       9.49155667       8.10678355    -155.03048399
C        9.32335472       2.96779156       8.61199104    -150.68317274
C        1.56946244       8.92348466      11.68555525    -153.41153524
C        6.30777793       6.24687193       7.21449397    -153.29398902
C        5.08641928       1.09515982       5.30643870    -149.22626809
C        8.36227386      11.36480668       5.42306640    -154.99290302
C        7.48473075       9.51179466       1.39004703    -154.28124033
C        0.29988078       8.18417693       4.52798625    -155.52972670
C        4.15437055       9.47270115       8.36293950    -155.69092062
C        2.68347394       9.02020718       3.10061221    -154.35814569
C        5.04879786       8.52768525      11.24435155    -154.70398210
C        5.10312427       1.49937829       6.34820272    -147.67146276
C        3.31297678       2.70934427       3.88102318    -153.04836144
C       12.43022650       3.94781753      10.08546060    -155.78132628
C        0.10460689       8.36812381       2.98375410    -152.46440848
C        9.18486332       2.74367590       4.89360148    -154.94969906
C        2.04096553       4.01954017       0.87152803    -154.07615102
C        1.34523158       0.52785074       6.73500320    -151.85121819
C        7.92301588       4.56678534       5.97956652    -154.14379867
C        6.35173573      11.65476943       7.12573352    -154.54274550
C        3.14134422       4.31512246       7.26304724    -153.27794792
C        0.17351810       9.50230930      11.43700295    -154.46830380
C       12.25942600       1.53286508       8.70027786    -113.37174544
C       10.15635119       3.65236325       8.33609632    -153.75779880
C        9.51294673       9.11780016       6.45329694    -151.31315125
C        1.50342333       5.37635643       4.96008861    -156.12247880
C        5.15445531       8.95370725       4.48400285    -152.05934706
C        1.11536198       0.68350411       0.62109146    -153.94427017
C        2.35979399       0.29705437      11.10838191    -153.41538697
C        8.00030685       2.97992668       5.49299693    -157.58293960
C        1.76877023       0.26523809      10.16084426    -156.66236084
C       11.00150839       7.44782617       4.19674106    -149.98370969
C        5.27584489       4.45283300       2.72979988    -155.04780914
C       10.46629593       0.86386678       4.00516492    -155.20198706
C       11.75823795       3.91475317      11.32019604    -152.07646828
C       10.84227977       9.87913799       9.51499485    -155.21553566
C        2.40238211       9.17929499       9.16856796    -154.21425312
C        1.13663684      10.03333591      11.36594594    -156.56231723
C        6.04390312       8.64577223      12.65248605    -154.32785919
C       12.28012482       6.14931736       1.44159568    -153.88466176
C        3.40241567       5.68440666       7.68792997    -152.36708537
C        4.61550503       2.18514046       6.10505234    -149.26751778
C        4.88163277       0.61633086       9.58049633    -154.36240391
C        7.67690852       2.17562950       9.37368729    -154.97367631
C        4.90184517       5.27300312       1.66765705    -154.78130084
C        4.05174688       6.82924238      11.64670495    -153.26259659
C        6.63113786       9.34114777      10.64085985    -153.68590189
C        5.58881060      11.93126579       3.23527618    -152.81601837
C       11.66292351       7.56220094       5.17762468    -152.40314823
C        9.94446026       5.33137457       8.91809554    -154.16577173
C        3.80960775       1.46623713       6.63940715    -155.53038471
C        8.35347974      10.72542165       2.45335473    -154.60475530
C       11.49638566       8.69449192       3.66676410    -152.88588316
C        1.60897838       6.27353591       1.90219252    -153.75811383
C        0.36666873       4.24281098       4.61816758    -154.73924285
C        2.49400993       5.36351727       7.41113920    -151.65427285
C        6.76275525      10.70817903       0.60912403    -153.64580257
C        9.36324188       0.99149929       7.25034889    -156.18111763
C        8.82814462      11.22529122       7.05098990    -154.44916896
C       10.64048863       6.38069105       4.25782627    -149.34185611
C        1.16575856       0.20888788       5.77535604    -152.03092026
C        1.65856851       4.44965842       6.22957811    -147.18471960
C       12.66227863       3.87138421       3.08031021    -155.86096748
C       11.26050611       8.91027428       7.10308898    -153.85017291
C       10.72554966       2.76716529       9.10809718    -154.89199308
C       11.50529499       4.16338228       1.61024565    -153.51233339
C       12.52066385       7.68841640       6.06483236    -151.03917099
C       10.19696799       7.46510719       4.81453120    -147.21885102
C        3.55247894      12.09836687       1.66132067    -156.58698818
C       12.28556514      12.58727899       7.02517077    -152.87066327
C       11.47957827       3.30809969       7.83749402    -153.17452400
C        8.56054479      12.16083457       6.08391829    -154.32579829
C        9.38493916      12.06772186       1.88611477    -153.30860958
C        1.35420491       9.78420758       0.22914892    -151.13246187
C        1.01240165       8.74060024       3.51079968    -154.89232943
C        3.19618267       4.85158939       8.77056682    -155.64669135
C        9.22961477       4.28739602       8.67703168    -155.16696580
C       10.74020653       6.45444901       5.96105662    -151.97202823
C        0.58743059       9.98214569       7.65361114    -156.73280957
C        7.47418293       8.73590237       6.85997700    -153.49242556
C        6.83417067      10.95642412      12.05100407    -157.10070353
C        9.79001912       1.93057180       4.94351163    -152.46317352
C        7.76001104      10.90771724      11.26499917    -152.65536508
C       10.00805442       0.00076179      10.75659150    -154.31875010
C        8.04990979       1.44122445       6.19255832    -154.45051831
C       12.09126245       6.97005071       9.00757284    -156.94993586
C        9.10391134       6.35139011      10.99769376    -154.84695288
C        1.53061214       1.34137855       8.95931398    -154.71729455
C       11.65243969       0.72655690       1.00378802    -156.61786948
C        1.83319644       1.45894070      11.12954156    -154.30895699
C       10.74857822       1.60680225      10.35658064    -154.23328465
C        2.50381531       9.92834410      11.51525398    -153.63903888
C       10.30074373      12.08692299       3.83243150    -154.87587618
C       12.46093552      12.41956347      10.92527988    -153.92041029
C        9.04669195       6.33279061       3.63006433    -155.17672858
C       12.42108676      12.37831943       1.73867565    -154.42291248
C        1.34445073       6.29504118       3.64717895    -154.30084242
C        0.74249512       4.96975318      10.79055191    -155.45794764
C        3.38637632       4.02258675       0.04950962    -155.47422339
C        3.25213478       6.56193697      11.03526398    -153.64380358
C       10.18734182       6.52380351       0.29199679    -153.54256168
C        3.64102178      11.03479035       9.25442264    -153.37048235
C        0.30366468       2.92342413       2.19741639    -155.75215220
C        9.27198528       6.57778430       0.91818551    -154.87270513
C        6.64765084       9.97239151       2.91789421    -154.52828034
C       12.37660413       6.83973900       4.89095172    -150.44923453
C        6.66179567       3.43419995       2.90976573    -154.76355641
C        8.22723868       9.41541776       3.00676986    -153.61704533
C       10.98202563      11.00199481      11.69418296    -154.73279864
C        7.76729467       4.07649074       4.04137826    -154.32247943
C        3.33100024       7.57121267       5.94291795    -152.71997985
C        2.74829697       1.88763806       7.72008548    -151.71023383
C       11.90439700       1.72086980       8.81131163    -116.14377305
C        7.66593827       1.98968570       3.30264657    -153.30811974
C        6.17514929       5.39727287       1.77454337    -158.18796599
C        1.79793036      11.15921372      10.74312510    -153.46977541
C       10.22162225       6.10752289       2.52539739    -151.47254869
C        7.61994515      10.39372843       5.42442328    -152.06375031
C       10.16282837       7.25176977       3.45114815    -153.91175889
C       11.81586696       0.91831480      10.43126025    -157.14060107
C        3.87628690       5.03099200       9.71792526    -154.81595933
C        9.82655248      12.26025805       5.64530034    -153.90723696
C        1.09403208       2.17167406       2.26775655    -154.89637682
C        2.41486285       6.70714876      12.65002830    -152.56247904
C        6.13129389      10.62965919       7.02003767    -152.98714713
C        9.40657244      10.58846635       8.78992156    -155.48297639
C       11.10209674       0.34977173       2.30821974    -155.93385792
C        1.05242322      12.61581188       8.85681832    -154.20879752
C       12.25540656       9.91071746       7.04515275    -151.36480908
C        2.85286636       8.94702525       4.76558110    -155.10998265
C       11.56708424       8.71937659       9.62979204    -155.30538806
C       12.01317783       7.21508280       0.16734046    -154.61407283
C        3.38260010       2.32105890      11.34401825    -156.03941551
C       11.39913831      10.15943617       6.98676850    -149.78978857
C        2.56621900      11.46828800       2.70538884    -155.18687426
C        8.72980921       6.82577337       7.45196082    -151.98517188
C        6.93143082       6.13624779       2.29522697    -152.05711367
C        5.49076960      10.21803804       1.37897437    -156.34457251
C       11.75947962       9.43767828      11.33670901    -155.11851178
C        5.39418789       4.88402651       9.94992618    -153.17363073
C        9.36024650       4.21144913       5.52032655    -153.93777982
C       12.46574860       4.76360979       7.48658686    -152.00320920
C        3.75156912       9.52746279       1.12468861    -152.93200549
C        3.20580884       2.37698541       6.90456203    -152.34709403
C        0.72572869       3.55511590       9.80842661    -152.92575054
C        7.96033009       5.25664375       9.58847120    -153.70577908
C       11.39044659      10.95892027      12.72902178    -154.51225299
C        9.25709800       2.23320730      12.12211227    -154.00040184
C       12.46705428       6.52901342       6.28748873    -151.00273503
C       12.65479018      11.59397863      10.36179054    -152.62173562
C        5.71999276      11.15317176       9.29292732    -153.09623732
C        9.81119157       9.67830691       7.29935019    -155.28334485
C        4.37793577      12.59929890      10.87643219    -155.06564388
C        1.29717753       4.58876425      11.66979752    -152.62891325
C        7.13350358       1.44133966       0.41458196    -150.67829148
C        2.30828374       1.86951219       3.08648018    -155.65873602
C        6.85113167       0.65711279       3.86682714    -152.75834043
C       11.61924733       9.85310125       1.31113036    -152.62144378
C        7.15184706       5.75341554      11.29536257    -152.88396280
C        3.18854062       0.25260118       0.95941675    -154.08539653
C       12.33797144       3.03105290       7.32475969    -152.42539820
C       12.12527406       0.27936117       5.29569886    -150.05567111
C        4.35722415       3.90112037      12.43447635    -152.80022054
C        9.31685193      10.90943254       2.66390158    -152.93683432
C        5.97343495       9.18922838       2.30207538    -154.16266618
C       11.11933936      11.89695976       8.25869014    -153.14259761
C        1.82371108      11.42385657       7.30475211    -154.16435695
C       10.71185285       1.22791904       6.63218752    -154.88891451
C       11.08060427       6.95063196       8.21693407    -153.34825417
C       10.41120147       1.15409835      12.76113888    -154.31124939
C        5.02509086       7.18274809       7.24539500    -156.67966680
C        4.52806305       6.62944816       8.42622645    -157.24166934
200
Lattice="12.800757219458102 0.0 0.0 0.0 12.800757219458102 0.0 0.0 0.0 12.800757219458102" Properties=species:S:1:pos:R:3:gap17_energy:R:1 anneal_T=2600 density=1.9 run_id=166 time=1 pbc="T T T"
C        6.61705703       4.85686330       5.63764549    -156.21227726
C        3.71209159       6.18761722       5.68938615    -153.84614207
C       12.22654085      11.61246293       2.81062386    -155.08657213
C       11.21731635       7.13754862       0.74934993    -155.17413983
C       12.30403664       8.48944939       4.55749200    -155.21454716
C        2.00206403      11.55002083       9.28752540    -155.39165835
C       11.22129739       7.10523951      11.78168894    -156.76684628
C       10.83064388       3.56362840       8.41881481    -154.28426153
C        5.67887673      10.85889515       6.63683420    -158.04821815
C        3.87757978       9.33223844       1.31045192    -154.64390804
C        4.75068102       2.36294298      11.80972260    -157.84803685
C        4.97923854       4.78100602       9.68249276    -154.35471349
C       12.05699482       2.85616895      11.21471780    -155.36971031
C        1.92527229      10.39722304       4.68846934    -156.31942585
C        4.50756904      11.46545903      10.54393252    -157.01383062
C       11.87023177       3.28397026      12.40262807    -156.37555381
C        0.34179942       1.76149940       7.22203361    -156.53850406
C        1.70645614       8.30034380       4.29199149    -154.78301473
C        0.64412770       8.69892098      12.22479995    -156.44734207
C        5.97395979      10.47474443      12.47639883    -155.45092281
C        9.70314038      11.45267107       0.48187811    -153.97891373
C        1.03899394       7.34872271       6.35179974    -155.88416877
C        2.36657839      12.03314701       6.79735569    -154.88768584
C        1.67253414       4.35692973       1.01437936    -153.74175670
C        0.84993444       9.85727430       6.51114356    -155.85449718
C       12.72237818       5.11380010       0.83760987    -154.93189403
C        7.70962726       1.52019233      12.16308750    -155.64341121
C       11.13542991       2.22326112       6.01935127    -155.71229869
C        1.55316708       8.58231888       6.74556383    -155.93814903
C        2.28320706       3.28384225       9.75938691    -154.08951724
C        6.82017944      10.60047346       1.97397917    -156.18210380
C        9.72349359       5.72183607       3.20340229    -156.99934225
C        7.71941984      10.67782844       2.63575272    -153.86758117
C        7.49783873       1.34204419       1.25654025    -155.23406163
C       -0.00126243       7.07171432       6.98480998    -156.07376041
C        8.06770284       4.27166389      11.61489507    -156.35396107
C       12.17903724       5.07803479       2.37569253    -156.21723421
C        6.53389051       4.82550145       4.24781608    -157.89132864
C       10.90415863       8.04321499      11.11452627    -154.54211809
C        6.86109066      10.65925454       0.60407285    -156.29229369
C        5.23419122       7.20617348      10.76797137    -154.19145889
C        8.21134014       4.99037520       8.06582113    -155.63274259
C       10.65454386       9.19672963       9.85371569    -157.39062190
C        6.67125543       3.96329365       0.58817303    -154.15674263
C        8.28731263       5.43591836      10.48749398    -155.41504037
C        3.42602026       2.66310793       0.95436942    -157.33734197
C       11.52251201       7.30645461       6.33271381    -155.91150967
C       10.22260791       8.63622287       3.89032933    -157.51369285
C        3.48951202       5.72397380       3.44994488    -155.61180022
C        6.06067211       2.03139057      11.43652932    -155.79946609
C        8.84470880       1.12516608      11.38363659    -156.80140235
C       11.90858284       2.67003314       9.60763393    -156.35216830
C        1.21509780       0.41756966       6.91107762    -155.63700119
C       10.51506681      11.38780964       3.80784125    -154.93037057
C       11.57006682       9.76016776       1.20604382    -154.79246585
C        0.24052367       3.17083717       8.98545313    -155.26537965
C        6.01584386       0.87971924      10.12126432    -154.05439558
C        3.80611315       1.29506541      11.24677089    -155.25090704
C        3.99953259       9.26146306       4.34908287    -155.74657233
C       11.27833756      11.11429586      12.76289258    -156.04179586
C        8.71159373       2.19858126       8.80482164    -155.76057911
C        2.19447221      12.03956019       0.02346417    -155.70584487
C        2.31936920       6.26069675       7.31098608    -156.53461164
C        3.10098344      11.70624127      11.05802373    -157.41582904
C        5.16513114       8.95292640       4.09219727    -157.02841376
C        8.67027288      11.74437473       7.90577326    -155.24203524
C        4.11184643      12.48555137       5.10210021    -155.77349944
C        9.00364300       4.45829893       0.45623563    -155.99438771
C       11.33230555       1.14040922       3.28080847    -156.09972873
C        2.35733625       5.29022014       8.50386304    -155.08303216
C        1.97860024      10.97736616      11.53929380    -155.73144801
C        8.46119812       2.42701077       2.09362785    -157.47404574
C        9.76875706       5.55016512       1.66857870    -155.65751439
C        9.07495602      10.19031160       7.78474210    -157.01703460
C        0.63871170       8.40915024       3.75039145    -156.50603640
C       10.11097251       4.29670217      12.62052256    -156.18106439
C        7.93051712       9.66718306       8.80689537    -155.02372482
C       10.69155085      10.34171896       7.90596527    -157.29721512
C       12.47796052       0.21797129       3.01171096    -155.90380961
C        4.94202674      11.34440227      11.71320489    -155.65106722
C        0.64154067       4.17467255       1.91974236    -157.70862831
C       -0.04049353       3.04416088       2.83779987    -155.55303887
C        6.13103788       1.50876125       2.13415504    -156.32155765
C        1.25175405      12.63803399       8.32383319    -154.92441391
C        8.57588010      12.70203778      10.69914170    -154.45486914
C       12.44328327       2.12326160      12.45128375    -157.00047512
C        1.11459777       1.56193560       4.41917981    -155.04712506
C        7.32191792       7.43398855       0.14143685    -156.15811577
C        6.49937967       8.10739799       2.53704608    -156.29880878
C       12.65816958       6.79711248       0.81647326    -156.69226774
C        3.23554500       2.91346514       4.94847832    -156.05449530
C        2.38695720       1.75884964       1.12685450    -154.55246005
C        3.23903960       5.53891325       1.64502531    -155.04442785
C        7.94013049       2.70343032      11.33816830    -155.94923286
C        1.76270267      11.94813718       4.20764730    -154.80969655
C        3.11804685       0.05173938       3.96051588    -156.09492924
C        8.69921540       5.09333169       3.51688004    -155.18060464
C        9.84022369       1.79232362       5.58602004    -155.07639682
C        4.31280552       5.01491425       2.67155643    -156.82797770
C        3.75817431       3.04637541      10.93550768    -155.64359929
C        9.03768022       9.64478173       0.36073302    -154.45903111
C        8.04750324      10.22525767       5.47496067    -157.17966858
C        9.42711765      10.59315143       6.00164782    -154.62680690
C       12.19158198       2.04125995       2.53894059    -155.84485852
C        6.62151169       8.82009295       3.82842487    -157.33116365
C        2.21706555       6.00221106       2.88578991    -157.29634969
C        3.00870278       9.76035977       5.99367295    -154.85748805
C        7.70289406       4.91400588       6.36342282    -154.60386347
C        5.25529967      11.97702849       4.14116017    -156.67994581
C        9.62067790       7.36281634       5.30042234    -156.59366062
C        6.45850685      11.13002799       3.51325742    -155.34334841
C       12.65895043      11.81173231       1.54743234    -156.80306350
C        4.92260799       0.10429340       9.87785792    -157.66056293
C       10.90664197       3.71394770       0.73796237    -156.04359813
C       10.11125412       6.94396277       6.33752689    -155.17573193
C        6.86647978       3.74070128      11.95673929    -156.58020699
C        7.75193376       3.36761041       8.40204582    -156.33451268
C        0.68082619       5.47438463       5.26473383    -157.03937408
C        8.97207634       1.73053437       3.13293413    -155.36160138
C        1.99609888      12.73594699       1.44541030    -154.56892490
C        1.91384121       3.43133258       3.07042803    -153.84933293
C       10.14744186       6.54964824      12.48820113    -155.67271999
C        5.68910453       2.92012154       7.16033396    -155.14657849
C        5.27057098       8.60465620       2.64901430    -155.03460442
C        0.38807544       5.72629073       3.59749921    -155.40232428
C        9.79611228      12.33920032       8.11533446    -155.03344097
C        0.91739571      11.11332300      10.76327349    -156.48873555
C       12.14037896       8.42031250       0.55561047    -157.57736851
C        7.24661107       8.61988910       1.25855637    -156.37891424
C        6.63440205       7.27109892      11.89176265    -154.91762114
C        2.53163136       9.91382805       2.59724804    -156.06803622
C        6.50433356       1.68756223       3.68508199    -156.66859912
C        4.73900673      10.19326858       7.46896022    -155.74390372
C        4.66477514       8.05742383      11.79259518    -156.38506248
C        3.77505851       8.39120358       0.04994894    -158.06447405
C        7.02189378       8.42008208       8.68805314    -153.53102846
C        0.05458064       0.92212175      12.31315078    -155.10114109
C        1.37021865       0.52479904      12.35046498    -157.19312598
C       10.23254130       9.14761312       8.61649690    -155.61951739
C        3.66394794       6.39369661       6.86281877    -156.28988920
C        0.64827387       3.10954714       6.76618585    -154.56471261
C        9.00817447       8.46319503       0.93711527    -155.50712116
C        5.88595458       4.53286334       2.91621731    -154.77402857
C        4.70071967      12.42744874       2.80558036    -154.97591471
C       10.24728777       5.56855980      11.63768042    -154.67333358
C        5.54350872       1.49094260       4.95445628    -154.65570878
C       11.03900180       9.40588120       4.27560652    -154.62488361
C       10.31679588       2.12784427       8.83099919    -155.60506149
C       12.56966515      11.39700058      10.91681858    -155.80011601
C       11.37192390      11.36520350       7.44489480    -153.28754985
C        1.01056602       4.20634162       5.44006580    -155.64431810
C        1.95146264       0.61700674       4.55802963    -157.66902069
C        2.87708539       9.65074688       3.81980996    -157.58081838
C        4.02148589       5.17493652      10.80546479    -156.03076118
C        4.88711149       0.22277286       0.36550642    -155.08817306
C        1.51016933       7.14554909       2.97158058    -155.73088866
C        0.55727585      10.52981328       5.52287390    -154.92134854
C        4.45507314       3.21991527       4.69577858    -154.27333817
C        7.21791177       2.49188501       7.42102139    -157.26647021
C       11.25619225      11.31859594      11.42264050    -156.77431124
C        4.06463724       0.58906269       8.79207209    -155.07462808
C        9.82230263       1.12537089       4.28052201    -158.15056935
C        5.33842779      12.04752226       6.35497432    -155.46309627
C        4.56793741       3.29673262       9.30632971    -156.09639854
C        1.97989312       9.86489075       1.58360728    -154.58665860
C        2.29333246       0.74463157      11.43393077    -156.09584764
C        8.66397491       5.02680616       9.27414861    -157.15722297
C        1.65332020       2.86889291       4.46684983    -157.43510700
C        3.56196431       9.67756447       7.46577283    -155.65980417
C        0.70765786       0.10020138       1.32393112    -156.58170078
C        0.85544644       7.69694171       1.06592417    -154.29327290
C        8.30776824       3.42211603       1.20997622    -156.12973644
C        9.70344760       9.47896072       2.59595516    -154.05000955
C        9.76288152       7.21633728       3.93504237    -156.43403990
C        0.35374125      10.19563672       1.33453014    -155.60107826
C       11.87220309       2.30281782       7.24673908    -156.62200719
C        6.25841821       0.37564718       4.95412346    -155.90487427
C        3.17721195       7.31190773       0.74793288    -153.66687820
C        5.42095427       0.33079205       1.59022527    -157.51870507
C       11.51854377       9.25065922      12.56482646    -154.22774193
C        3.18920626      12.57016438       8.25280179    -156.42538543
C       11.30751049      10.25229287      10.38931217    -155.45911035
C        6.75671329      10.57156935       6.05341409    -155.40454321
C        2.64644135      12.82213448      10.36952220    -155.54359074
C        4.59303970       3.21113395       0.52563877    -154.27113583
C        9.29921249       0.95139836       9.72421043    -155.35991293
C        7.30713305       5.10107615       3.23293364    -156.68055264
C        0.71988386       8.46506394      11.06013585    -154.26557505
C        5.66003402       0.81491669       6.48565725    -156.66209364
C        7.43876323       9.82442756       3.94454054    -156.78417208
C        6.75437075       1.14849290       7.07231596    -154.76023893
C       12.60601930       5.50428720       6.17105304    -154.00370997
C        4.77676897       3.59157246       8.02770047    -156.33963098
C        1.47567129       3.97462232       8.56458983    -156.77867319
C       10.77976087       4.46638901       2.12989239    -156.56159198
C        2.99435313       4.45293541      11.23727273    -155.47863415
C        7.76779390       1.40339822       4.56815503    -154.45709937
C        3.50113511      11.69790798       6.53118955    -155.15490423
C       10.04762156      12.52844671       4.35690413    -156.04991213
C        4.28882970       1.39185193       0.25513957    -156.77642159
200
Lattice="12.800757219458102 0.0 0.0 0.0 12.800757219458102 0.0 0.0 0.0 12.800757219458102" Properties=species:S:1:pos:R:3:gap17_energy:R:1 anneal_T=2600 density=1.9 run_id=166 time=2 pbc="T T T"
C        9.36946304       0.70315455       2.45157542    -157.51850144
C        5.07221044       5.18970859       3.90332210    -157.26655179
C        6.13802709       6.57416169      10.95295511    -155.67409596
C        0.87462582       0.15399823       1.15409195    -155.66963992
C        2.60413485       4.20461352       0.89803456    -154.30107257
C        9.58962327       7.39777521       9.80724894    -156.26551165
C       10.90039520       2.74686329      12.70864297    -156.75816046
C       10.99312389      10.59394508       8.53608255    -157.19686096
C       10.80627124       0.16080951       5.85646163    -154.90612730
C       10.83959161       7.29294981       9.76774580    -157.47071885
C        3.59171327       5.88935958      11.09339222    -156.44834256
C        5.39359905       5.89344302       1.50219446    -155.87520996
C        1.44649837      10.23350136       1.42115287    -156.40340337
C       12.63950608      11.78811492      10.99864102    -153.59182995