200
Lattice="12.010956177378656 0.0 0.0 0.0 12.010956177378656 0.0 0.0 0.0 12.010956177378656" Properties=species:S:1:pos:R:3:gap17_energy:R:1 anneal_T=3400 density=2.3 run_id=378 time=0 pbc="T T T"
C        1.74938376       9.90499115       0.71022465    -140.32766779
C        4.95598476       8.75032989       1.20594804    -154.22113578
C       10.40357796       0.72665204       0.77310922    -152.72571271
C        4.25649069       0.22843037       9.58898290    -154.71311733
C        2.38250528       2.06091193       1.02837807    -155.79934663
C        3.99651355      11.99254338       0.07174480    -152.76429596
C       11.58155248       5.75132626      11.04646439    -155.15837758
C        1.09850404       5.54888159       8.63146947    -154.27009311
C        9.45375154      11.38284322      10.45145363    -153.52105527
C        9.91610129       2.93651063       4.69349732    -155.32907248
C        2.24907557       7.74273078      11.02802757    -154.57780895
C        2.88670120       2.99258979       8.87355029    -154.76119127
C        3.92330677       1.48896220       4.83686010    -152.76633222
C        9.73835115       7.38165741       5.74393952    -155.84283453
C        4.94528300       2.59734525       3.66808596    -153.45333818
C        9.28454119      10.49884886       1.06958285    -156.00298453
C        7.97230820      10.33710932       1.87091061    -153.93885346
C        7.74122941       5.50954571       6.26065085    -152.62120814
C       10.00779293       2.24000729       0.01927242    -153.02382733
C        2.80079884       5.95820297       9.02595732    -154.42648583
C        8.77903608       9.97248072      11.58790628    -155.31005491
C        6.90961483       4.84828252      10.15505926    -154.34385123
C        6.46480107       6.17632193       2.20727744    -156.27702497
C        5.69063489      10.07536657       5.04672753    -153.77822768
C        7.51664855       7.80628075      11.17995415    -154.38841383
C        9.18900605       7.45796302       4.27282559    -154.90337241
C        2.61864068       7.85818009       4.77989213    -153.56570359
C       11.85219536       6.04946221       6.88934033    -156.30240261
C        5.58293265       0.90990680       9.47875835    -152.75319737
C        2.55860992       9.97638428      11.01528394    -154.84698880
C       10.42681916      10.00854962       6.64279143    -156.86894531
C       10.90877078       5.63145691       0.58836029    -155.19924067
C        6.10918068       6.85580574       9.56392804    -153.32932561
C        0.47607467       7.98317811       7.87714539    -153.84201976
C        8.13874402       2.03701012      10.58334594    -153.05348670
C        4.50981377       3.59590012       1.01071115    -153.95605770
C        1.26697571       4.88568463       9.73346269    -143.72667080
C        0.94315073       0.53824338       1.15353343    -154.16227198
C        0.39831213       3.07390396       9.65064715    -155.75134916
C        3.21952479       0.75427604       0.26945499    -154.64601817
C        6.97650384       2.81761418       4.44561521    -154.09772504
C        6.23158434       3.31642919       3.25528141    -155.25484316
C        5.04039776       6.62042703       6.45068820    -155.79091104
C        6.83464244       9.53319201       9.50665980    -154.93428443
C        2.32033657       8.19762172       8.69985986    -154.24541653
C        6.23219690      11.17051354      10.45273880    -153.10624846
C       10.61053874       4.00914907       0.68006034    -155.27713970
C        1.23388553       9.48423535       0.64161567    -136.34501388
C        8.80630095       3.34409042       3.42218566    -150.65799447
C       11.55496023       7.68310839       0.79919701    -154.51148156
C       11.31972565       2.17352665       8.23210518    -155.07296662
C        7.50719593       8.02851947       7.55390654    -153.33872800
C        2.88838273       1.95982772       8.09531240    -151.83718367
C        9.09391531       4.44746490       2.10499214    -153.76835650
C        7.08306504       3.21115316       1.89556910    -153.63642905
C       10.05383092       3.72045373       9.58131991    -152.25756908
C       11.47583205       6.26580355       4.14105339    -154.52591780
C        3.28596940       0.29924216       3.80247655    -154.46603187
C       11.96746451      11.02424412       1.31393855    -153.44534934
C        5.31504028       5.28626203       5.42055653    -155.65765308
C       11.12577273       1.24434707       4.25425666    -155.08662432
C        3.14898445       7.56153349       3.83616728    -154.57487728
C        4.46958908       9.33857848       7.55779809    -156.86435028
C        5.78035674       7.57176683       2.41589574    -154.39140416
C        3.33258392       3.86261541       1.52439453    -156.12526229
C        1.85021573       5.10799542      10.13753528    -144.85683561
C        6.52294611       1.79375223       1.00073846    -151.66873249
C        0.47461413       3.23187206       2.73033056    -156.04122650
C        9.17143402      10.01393053       7.95855565    -152.61370466
C       11.57085072       2.69973865       4.02306977    -155.93930731
C        4.19428595       5.23971958       2.43693893    -154.72855727
C        1.13343910       2.68061721       3.78289869    -154.18538722
C       11.17191882       9.17828026       6.37868252    -154.08521665
C        4.22914175       3.04929351       9.39936593    -153.02336443
C       10.71348465       6.24119310       2.12262422    -154.26721952
C        2.22594246       5.34116411       6.66302990    -154.65685652
C        1.55622356       5.91920339       1.22840853    -153.56622251
C        0.16889686       5.45441542       5.79503413    -154.49796568
C        0.66635704       0.50260927      10.69970808    -155.14104509
C        9.79918664       4.56666163       3.65649539    -153.38505238
C        2.09749730      10.72590398      10.02060862    -154.30646064
C        7.86100266       9.00151502       1.83416910    -156.54830351
C        6.16531989       5.08872985       7.39689932    -154.17335121
C        2.46281053       6.87877069      10.25810125    -155.34831344
C        6.42371159       0.62060611       4.62353350    -152.60461467
C        3.93468115       2.05698434       9.79218425    -153.31424512
C        7.47748082       6.22171133       3.91973952    -154.09386707
C        7.89494563       1.37913402       2.06271357    -148.70728359
C        2.52149606       7.60910889       0.94010475    -154.81632581
C        3.26821721       3.02649672       0.48701425    -156.31986751
C        6.71878475       4.36806047       1.74593661    -151.51329692
C        8.38165359       2.93831228       5.35262257    -158.29717658
C        0.32682412       4.43401263       0.60493541    -139.99860371
C        1.49712965      10.73402338       4.80899468    -153.44762756
C       10.43293273      11.85116242       7.36145499    -155.93692595
C        1.89338311       0.46597465       3.00980149    -155.55959350
C        5.41449100      11.88866062       2.58207933    -150.94907510
C        3.00521330       7.15392969       8.83044297    -155.50965954
C        8.48387884       7.89808049       3.33147891    -155.75396821
C        6.86704800       0.04998347       7.63134117    -153.24650576
C        5.93073391       7.98290186       9.99489316    -154.52887039
C        8.01186027       4.46749917       1.75857214    -153.58768114
C        1.03057367      10.06563769       8.23142055    -153.48750696
C       11.88371211       8.47605971       9.87789444    -156.94988592
C        7.31074473       5.04519013      11.81785603    -154.86155007
C        2.97941377       5.11858908      11.01757804    -151.75989351
C        0.09180466      11.66729870       9.33549167    -154.15045652
C        9.81178613       9.78948179       2.31079987    -155.54734741
C        3.79874114       2.00773942       6.07892509    -152.84590534
C       10.85836080      12.00717273       3.28479233    -154.05896434
C        9.74289129       7.39716356       6.75518996    -151.97445812
C       11.67049361       4.72144682       0.77154659    -145.14449122
C        7.56389965       6.98093588       8.36600332    -155.07446952
C        8.11610336       4.92576519       3.90983048    -152.74318192
C        6.36287610       5.82318781       9.47212830    -154.14853457
C        5.20954806       0.87891973       2.81005929    -155.23854246
C        3.08006558       5.27274971       4.50820430    -152.29616969
C        2.94291247      10.77230230       0.68361678    -155.83733642
C        8.68087053       6.18620695      10.52397578    -153.43268727
C        3.66346174       6.12783370       4.66230487    -155.52751811
C        1.43254674       4.31829907       3.09294133    -151.97066976
C        0.03739059      10.22706494       3.29701948    -154.27972335
C        1.82277070       3.64305513       6.16564419    -153.80148371
C        2.80401777       3.05089097       7.40720472    -154.00664799
C        9.33600814       4.25215474       0.88478589    -154.50377251
C        2.35086842       3.88797054       3.25392417    -152.92582113
C        6.03724707       4.89022477       2.29147424    -151.20909522
C        2.77617638       0.20818110       6.22189150    -151.02399038
C       11.71868157      10.08111982       4.36161058    -153.99922636
C        4.39287510       8.10009276      10.33643671    -154.96698426
C        9.83920715       8.56262267       3.08332055    -154.92429805
C        7.80700141       9.11527079      11.19356257    -156.80023583
C        4.64635432       6.73720956       4.91359810    -153.98071240
C       11.71235180       4.92789113       8.20347106    -154.52300830
C        6.47571903       6.08113510       0.90205284    -154.09517841
C        0.37887841       8.24089720      11.20736315    -155.32764835
C        4.84724957       8.14752402       7.67871238    -153.76916446
C        2.61307960       1.91784943       4.32116969    -154.67261175
C       11.60301606      11.08682120      11.50453823    -153.56859047
C       11.03572659       7.57460141       4.72160296    -155.41162018
C        0.83871666       1.93211844       0.24532378    -154.61835061
C        0.25582376       2.13415474       1.91402994    -153.83079811
C        9.94963588       8.73035567       0.78920750    -154.28832197
C        1.06731879       2.10261397       4.62705271    -150.06768988
C       10.33685709       0.97538333       7.85282320    -156.99045839
C        8.46986206       0.32192606       0.49124691    -154.09723388
C        1.57811953       3.89813181      10.45965711    -152.60859752
C        2.43534147      11.05072827       2.89781133    -154.93986774
C        5.59508774       2.15625490       2.31383864    -156.16427337
C        1.07335069       1.91161574       9.62332222    -154.77022259
C        9.15212040       2.95470723       9.89450559    -157.81416032
C        7.77846337       7.37762173       2.44519046    -156.10746337
C        3.46526896       9.97855826       8.93798907    -155.58858860
C        9.52101290       3.47818073       5.90408160    -153.45280025
C        8.20789109       1.76726807       6.05959946    -151.10496856
C        4.07787576       2.53373523       8.03319173    -153.15491943
C        8.61440190       7.86668385      11.39855355    -153.37492120
C        7.91035568       3.04845274      10.02576132    -154.69443693
C        7.51863036       8.35172229       8.63807550    -156.12778742
C        9.99822020       0.84777653       9.48285409    -154.20068694
C        6.16590843       9.96014546      10.54672453    -156.09837660
C        3.89691870       5.74982489       6.83400586    -154.84666175
C       11.52631410       4.04572243       3.73565960    -153.92631947
C        4.40370898       1.65656309       8.48536820    -151.99916818
C        3.31495184       0.59513207       9.97299719    -152.31338644
C        6.44732513       3.07689469       6.09271366    -153.46030055
C        8.98154080       7.08957498       1.72922937    -153.61850055
C        7.75175101       2.32018043       1.66476657    -152.40192426
C        3.44301265      11.15525963       5.09375043    -155.63259884
C        8.00799275       2.92293825       2.74081612    -153.01234334
C       11.17060963       6.70136887       9.87481963    -154.27606956
C       10.10442107       1.76503403       1.03098925    -154.19568461
C       11.73442793       7.86286436       7.03082940    -156.41380246
C        3.22007730       9.00887774       7.05674904    -154.44860147
C        0.55502869       9.61137132       9.48870342    -156.22256717
C        7.33122341       6.77148883      11.47670885    -153.63830629
C        6.94582786      10.61369762       6.93459761    -153.45048601
C        5.78245865      10.29268080       0.55164280    -154.23889631
C        1.50715880       1.13135760       4.54593072    -152.32765734
C        5.29170300       4.03940467       4.84195274    -155.59157061
C       10.07656766      11.19723792       6.47068644    -154.64129485
C        5.79365287       8.65937092       6.20234967    -153.72625749
C        4.89179821      10.49769581       6.19260879    -155.66659276
C        3.26964651      11.36382988       8.82326042    -155.60406570
C        6.70554868       8.77306663       1.91542321    -155.06469761
C        5.62898266       4.68362432      10.18058254    -152.57841353
C        5.20337442       5.60927268       9.67183447    -151.88579581
C        3.26276423       9.99942129       5.76095904    -155.13520387
C        7.88845971       3.97497790       3.29515778    -152.68566930
C        4.18341604      10.42281951       0.80175054    -155.30890435
C        0.10656445       1.18809136       7.86171131    -154.41898317
C        8.99263892       5.10320305       0.34965455    -151.15971809
C        3.75753155       4.30489485       4.21117336    -154.85221917
C        3.54594655       8.97774534      10.59690631    -155.71695195
C        2.21582924      11.88647463       0.65190426    -155.52991184
C        2.27324161       9.00738838      10.65834235    -153.56408813
C        2.23060272      10.05445549       4.36939368    -154.50069906
C        1.22265528      11.46457778       0.50036562    -154.64738676
C        3.31023153       0.66738398       5.18058964    -155.79434265
C        3.49596896       4.09726145       9.46924567    -153.12891508
200
Lattice="12.010956177378656 0.0 0.0 0.0 12.010956177378656 0.0 0.0 0.0 12.010956177378656" Properties=species:S:1:pos:R:3:gap17_energy:R:1 anneal_T=3400 density=2.3 run_id=378 time=1 pbc="T T T"
C        3.09692896       1.92778249       8.25449360    -155.43204650
C        3.10400342       1.61482501       6.76418617    -157.18939600
C        9.26278935       2.82494086      11.82698436    -155.98743130
C        6.73184066       4.55498698       4.83994691    -156.13128687
C        2.53472013       3.67495623      10.76174467    -155.51562445
C        8.40969918       4.21722688      10.42385245    -155.62043304
C        2.14698244       9.66569687       8.20876789    -154.32558465
C        2.17387497       6.45449567       2.98511897    -155.29677938
C        0.82620845       9.59509647       8.26475096    -156.55988464
C        4.88999657       7.15955081       8.30193688    -156.45461268
C        1.18605310       2.66184409       0.03226359    -155.44935534
C       11.89506246       3.77240112       7.91680557    -156.21979118
C       11.35064185       7.84936405      10.72624028    -154.68557352
C        6.11573867       9.83951943       0.11912214    -154.16561451
C       10.06892869       5.97546271       5.85739501    -155.86882740
C        9.44805835       8.34510425       1.58187896    -157.23188535
C       11.49060552      10.75352918       5.38051201    -155.02167082
C        6.74518484       5.52104019       9.04248439    -155.68339421
C        7.52769863       0.33513450      10.19895931    -155.13644560
C        9.48430741       6.46510135       7.45248602    -154.58061863
C        9.95713071       7.91401903      10.09322686    -156.47976370
C        8.34419142       8.11115485       4.82593013    -157.49428258
C        3.93261526      11.48876785       2.72388067    -155.58061114
C        4.71219838      12.00499874       5.58139525    -156.44094542
C       11.21120666       0.79590001       0.05299690    -154.13810383
C        2.77298146      10.87061198       6.51031059    -155.10394555
C        1.79161428      10.19229323       3.50380010    -155.26390312
C        3.98554754      11.53776054       6.86492206    -157.03926646
C        4.78428814       6.91243740       0.77589095    -155.38554009
C        0.64197720       3.31256166       1.31700134    -155.90453943
C        8.15047872       8.01201642       2.20158425    -155.44157577
C        9.73745033       3.61962175      10.42257929    -157.23488486
C        2.24168883       6.79614732       4.75238704    -155.08818418
C        1.26424923       5.26138734       0.37553215    -154.60723066
C        4.13224936       5.26553112       0.51276453    -155.51165969
C        6.02825086       0.85542871       3.22822072    -156.31045688
C        1.43611400       9.32518627       1.22854065    -155.62585739
C        5.10966494       7.87808224       2.61629854    -157.61847927
C        4.94154759       8.03567800       1.37689998    -156.51603558
C        5.45926785       1.98378958       3.95788631    -156.26579039
C        0.73371208       0.43961060       2.02199643    -153.65987579
C        3.82020472       2.15533005       4.22852919    -157.44769442
C       10.77209811       4.72327248       2.62762487    -156.70289665
C        1.31785412       3.90671964       8.26344176    -157.33407042
C        5.17389954      10.88028080       5.05395813    -156.07332598
C        2.90600280       3.58290426       6.39862071    -154.90228598
C        4.45798649       4.58245603       7.06803934    -154.43559185
C        2.35478399       7.95776293       9.55848708    -155.32129146
C        3.35067242       8.63600961       0.78895647    -156.09576912
C        0.22371247       2.52085948       7.88785916    -156.04642390
C        5.75619069       5.14232273       3.81201325    -154.68803725
C        9.42998186       1.08861181       8.03481321    -156.39101409
C        0.18557888       8.73806671       1.73784123    -155.20143698
C        5.86526219      10.20655023       3.96436022    -155.44121088
C        4.09590421      10.22964730       0.46145974    -155.00554727
C        8.45005599       5.46235466       9.87908352    -155.78364587
C        6.57084581       7.14514968       5.58481837    -155.73812668
C        4.04806457       8.17069316       7.20534859    -155.87440568
C        6.60370778       3.18668684       2.87709243    -154.26344160
C        4.36228320       6.15334497      10.22498705    -156.24715356
C        7.45362706       5.11496178       1.84220443    -156.10680890
C        9.35671503       2.39735082       7.93016175    -156.81544886
C       11.24870487      11.25508268      11.19296202    -154.82811665
C        2.57034462       5.54685174       5.87870245    -156.28107942
C        4.83242805       5.79819301       8.00842514    -155.19727606
C        5.74554899       4.38906763       9.19933547    -155.53901179
C        5.78791163       1.45322961       5.35656216    -157.37944521
C        6.12057908       0.03974173       7.90869817    -155.14521661
C       11.33437902       7.25154273       9.43320080    -157.01008206
C        8.16890353       2.80663616       8.09045997    -153.43564409
C        4.23606006       5.50775608       5.24543679    -155.13390605
C        2.09899867       4.10240214       3.02447888    -155.17611860
C        2.64964095       8.28186657       6.07168248    -155.47412209
C        8.45004398       2.30146736       3.89312324    -155.79121482
C        1.66217220       9.14245158       5.32562194    -155.31489522
C        7.40658015       8.20521265       6.04141487    -156.89895796
C        2.03642159       1.68768347       9.22221634    -156.77422946
C       10.89615928       4.78424010      10.22507113    -156.48013605
C        4.35147334       9.63785548       7.88108498    -154.48713657
C        0.74778532       5.14491710       5.19818569    -155.25802677
C        1.56933952       2.22130624       5.51544309    -155.72985337
C        9.67298752       0.97626373       2.05103892    -156.14890773
C        4.30770541       1.03237652      11.89771688    -153.40597991
C        6.74064469       9.35777199      10.91512458    -154.94853341
C        0.71934698       3.77710941       4.36742389    -155.02011142
C        7.36983863       5.72627140       5.60314709    -156.15045917
C        3.67726233       4.62460248      10.88056906    -156.81144345
C        4.80899468       0.00602422       8.84670581    -155.19114441
C        7.67381191      11.77576964       5.55162009    -154.91272307
C        8.78275947       1.89656601       2.79197079    -155.66407591
C       10.05650937       2.43438060       6.10949297    -155.56512098
C        2.99912375       2.43116166       3.21202996    -153.69589955
C       10.40105566       3.25173818       2.38948364    -154.90304163
C        2.78307067      11.09310293       3.78049650    -155.72656046
C        6.06086061       2.49922775       6.28888861    -154.50416308
C       10.71894963       7.26823796       8.05806642    -155.68980385
C        6.69155592      11.13648650       3.67786288    -154.63142974
C        9.14831293      11.56333186       5.85667435    -158.07918681
C        5.83772106       8.08781756       7.66804665    -154.91446393
C        8.20506852      11.17874105       6.65599148    -157.24584241
C       11.95852835      10.02577333       3.71568538    -155.75751475
C        6.91683341      10.90413455       7.66685757    -156.27815684
C        7.84549652       3.72959407       2.44150310    -156.53450173
C       10.93207204       1.32172165       9.20206195    -156.02720651
C       10.68818957       6.54307648       0.17331089    -156.49448849
C        1.11461793       5.91012311      11.07774092    -155.41870267
C        3.83836529       6.38974461       8.73971221    -156.37692938
C        0.62129193       3.12634379      10.64281218    -156.35685435
C       10.97883069       5.22422544       5.11476960    -155.94727015
C        5.58179161       8.22744493      11.61000644    -155.07968324
C        3.25141388      11.05752648       0.08473153    -156.10252710
C       10.22242871       4.27093987       3.96965705    -156.77494546
C        8.95127319      10.32506234      11.80210967    -155.25813841
C        6.54743645       2.69327676       9.16755448    -154.94773108
C        9.95487266       9.25085046       7.81716267    -154.48942457
C       11.23003984       6.06918420       2.26549454    -156.09201624
C        0.40484249       9.41077634       5.57231497    -157.95365421
C        4.90670381       8.60094963       9.27101685    -155.11150523
C        8.15384179       7.80456318       3.45913136    -155.89990183
C        2.69844147       7.05142819       7.96621864    -155.52787751
C        1.52850227       7.26034676      11.98305473    -154.38568073
C       11.48379531       9.09745854       7.67355968    -156.22815337
C        2.75796777       5.12244460       1.90969399    -155.39316976
C       10.09016407      10.45281087       5.53054086    -156.89005381
C       11.99229115       5.45084817       0.69322555    -155.29165403
C        7.13462808       1.28567677      11.95176619    -157.28871659
C        7.72520679       5.37835003      11.61812584    -153.82418052
C        6.72273636      11.01357839      10.90438678    -156.13414866
C        5.79362884       1.03681216       0.76700285    -156.91006176
C       11.20066104       9.08214457       3.30841788    -156.27186991
C       11.36409412       2.30126317      10.34170952    -157.21632671
C        1.41675234       1.10355464      10.63137775    -155.40530927
C        0.07659855       4.82768373      11.03702377    -156.97513247
C       11.44146870       8.67646251       6.13729833    -155.73683551
C        5.49501245       1.56064359       9.77526082    -155.55166567
C        1.66797350      11.84772728       1.42412706    -158.22501664
C        8.98684964       0.67550578      10.90236894    -155.44068521
C       10.11100307       9.27210985       2.42300622    -155.00213082
C        5.03293896       6.88813924      11.35432921    -156.24446007
C        5.51065072       6.87284929       3.56753024    -156.06994159
C       11.53651140       1.42417511       3.08562665    -154.96783561
C        1.69251188       3.45390659       5.57851262    -157.46831356
C        9.87409897       0.73807326       6.41120819    -155.46970001
C        0.66680625      10.20827981      10.97634442    -153.95429344
C        0.68617992       8.19043917       9.19193672    -155.63034575
C        9.43653984       9.03028126       4.84542391    -155.32098579
C        0.74231793      10.89796092       4.97950221    -156.00702262
C        8.14868909       2.38505160       0.05247959    -154.49935607
C        0.09922803       1.03907623      11.22447877    -156.54420762
C        4.12467045       8.18312450       5.25137021    -156.27027382
C       11.04835011       7.23458326       1.28674575    -155.69451475
C        3.81906368       8.19053526      11.34305093    -156.10382599
C        2.25785558       5.82074958       7.20430364    -156.90587441
C        1.40018923      11.57221997       6.08472638    -156.38505146
C        6.41126824       0.81902950      10.72778970    -157.31848988
C       11.28555448       7.16512390       4.03649802    -154.04404268
C        5.62382996       3.83107464      11.50230419    -155.10623223
C        4.99033609       0.85927702       2.05400563    -156.05876807
C        5.00697127       7.01427830       4.90814512    -157.57718753
C        7.97755698       9.85946963       7.58136358    -155.89773390
C        9.14255968       9.44052748       0.61563597    -155.53471146
C       10.48674182       3.92103670       7.05978781    -154.62400983
C        9.12066370       3.36279148       4.77454726    -156.20001785
C        1.53406334      10.88840020       9.29226424    -155.60405323
C        3.70052755       8.37958771      10.11971102    -157.09508602
C        1.90076985       1.13368052       6.19340151    -156.82132072
C        9.49295530       6.76615597       0.14323185    -153.66876740
C        1.92946402       3.24778657       9.44552404    -156.91099866
C       10.28459742       2.24400694      11.25116711    -155.69478204
C        5.77331832       6.29298435       9.72437040    -156.02611210
C        7.12037107       1.23118306       4.96364775    -154.93346142
C        3.08732020      11.87041598       1.83021749    -155.97004581
C       10.10365237       8.83629231       6.40604348    -157.22046329
C        8.44916718       5.73969965       1.24080384    -155.84762089
C        4.90844540       3.53757491      10.48131286    -156.12409244
C        5.11078196       3.50425652       6.14988581    -157.88558001
C        1.95357001       8.27451586       0.60436609    -158.53118718
C        0.73626441       6.46158214       3.57413626    -155.86502801
C        0.53965346       1.40990609       8.30615272    -154.85823689
C        0.13529021      11.05619326       0.14015825    -155.32335982
C        9.84681008       5.48745756       9.86733681    -155.77628752
C        9.66823119       9.26378626      10.18893016    -153.82627172
C        6.38149308       4.24988467       5.98051932    -155.50692476
C        1.83866119       5.13796276       8.57320432    -155.12691258
C        8.88222220       6.36256382       5.64626642    -155.79008126
C        7.26635224       8.63187784       7.36342478    -156.77658169
C       10.23242183      10.82940239       0.60137056    -157.39323626
C        1.68968930      12.00969503       9.62316608    -156.07678170
C        1.81423091      11.11672848       0.16891368    -156.09774847
C        3.99242982       0.79139590       7.69982764    -157.18565047
C        9.63608987       0.62472827       9.46478961    -156.40742787
C        0.18148074       2.84693292       2.37444593    -155.66496502
C        6.97746472       0.56449692       1.72402863    -154.26617150
C        7.77158110      11.57063452       0.08691116    -155.25877134
C        4.02252928       2.68687492       5.60930871    -156.83981791
C        8.30791833       5.03065687       5.44044668    -154.54081193
C        5.45022360       4.30948303       0.97299315    -154.89694590
C        5.42361933       8.55521191       5.92892025    -154.95017772
C        4.05613593       8.60947741       3.36988995    -153.65778954
C        9.98002360      11.81277540       1.53311448    -155.80218851
200
Lattice="12.010956177378656 0.0 0.0 0.0 12.010956177378656 0.0 0.0 0.0 12.010956177378656" Properties=species:S:1:pos:R:3:gap17_energy:R:1 anneal_T=3400 density=2.3 run_id=378 time=2 pbc="T T T"
C        1.52995560      10.70806771       3.26617535    -155.08535234
C        8.21579430       7.20998482       6.57220304    -157.34739265
C        5.24226590       6.35693068       6.85422030    -157.36641025
C        2.03592914       2.84465084       3.38824269    -155.87921999
C        1.61016476       2.47854488       5.08589526    -156.23039117
C        8.41005950      11.22887478       8.14848490    -157.03937374
C        9.54618786       8.01822608       6.33549112    -155.03260505
C        3.16447858       5.31098058       3.04538995    -157.01566626
C        1.78110469       6.09080392       5.02755805    -156.87290920
C        5.07345191       1.10890793      11.06007280    -156.83140296
C        5.29254376       1.22253517       8.08997953    -155.90672399
C        5.15361303       9.60460915       2.23615178    -156.12224410
C        8.52108878       8.15314515       1.04137392    -155.14552117
C        9.25537859       6.20246978       5.26673222    -155.34841518