200
Lattice="11.385853889763778 0.0 0.0 0.0 11.385853889763778 0.0 0.0 0.0 11.385853889763778" Properties=species:S:1:pos:R:3:gap17_energy:R:1 anneal_T=3600 density=2.7 run_id=434 time=0 pbc="T T T"
C        7.03718640       7.24481883       6.06924080    -154.34025197
C        3.03790522      10.19881031       5.66564644    -155.07204563
C        2.76615904       7.68361825       9.82097075    -153.69925945
C        3.04839159       0.95628648       0.54863306    -155.12516861
C        7.04712625       8.27744746       0.93066945    -156.02028347
C       11.32523560       3.23925266      10.84038040    -154.41592273
C        5.85791935       7.85409864       1.17223059    -153.38997425
C        5.66983643       1.42574801       0.71528439    -155.72313996
C        3.82539642       1.29073455       5.62869934    -152.65440063
C        8.36929715       1.61616503      10.68619317    -155.05981033
C        2.28268153      10.09334314       7.91295212    -155.03265350
C        2.82561597       8.46926494       7.61490462    -154.83895367
C        8.01649508       9.87219570       7.49207403    -154.64403029
C        6.08569336       1.43442403       8.43064413    -154.90953222
C        0.63700892       6.71258709       7.63841641    -156.82974726
C        6.16580423       2.66773972       6.07226944    -117.38232648
C        6.92481941       2.74649568       5.99480009    -138.95396775
C        2.81379746       3.86629441       8.62000226    -154.97324972
C        7.60686621       5.30246047       1.92271776    -154.10506685
C        3.89048934      11.24099167       1.55103795    -155.24723438
C        8.06407656       6.47365495       4.55270199    -154.40454841
C        5.02687726       4.49405346       4.03812971    -155.09131504
C        5.87261849       6.94063436       7.36960779    -150.47958818
C       10.26204734       1.58676676       9.63601893    -154.88136585
C        5.53597295       4.43760240       7.72705529    -155.02004217
C        8.14464286       0.27893976       0.98896616    -155.91661949
C        3.65604323       0.35802021       5.06287933    -149.87551091
C        2.29023035      11.17725366       3.92695823    -152.10954312
C        8.57811371       5.19333845       4.55730188    -154.82453198
C        0.42112744       9.94624930      10.93597603    -153.64811496
C        5.25902344       1.39633835       2.44108153    -153.51883783
C        9.10830738       3.95155168       0.10824896    -153.86024612
C        7.98020836       0.16649990       6.42183793    -154.20266699
C        9.61022998       9.01377063       7.68564494    -155.25012907
C        8.31978007       4.44927290       1.55418044    -155.72255337
C        7.33081618       9.86375878       9.93737972    -153.05353775
C        7.44970727       0.43285828      10.63126781    -155.23743872
C        5.75445610       3.45655168       8.66503331    -154.27159969
C        4.27608267       0.50021927       9.73171704    -155.96406632
C       10.83953785       7.45404528       1.23138010    -155.29213028
C        4.31370153       7.66985276       6.78611693    -132.48222481
C        5.92099698       9.72017178      11.35681996    -152.94407028
C        0.43899071      11.29408391       0.35570318    -153.96411054
C        9.39932980       1.48759597       6.49606231    -154.54357762
C        3.81110717      11.07142215       3.07290533    -153.28470252
C        3.77939757       8.83124401      10.55517615    -154.14742838
C        8.55279157      10.48634866       1.82138366    -155.00603113
C        4.03619412       7.17021872       6.55802412    -135.15086610
C        7.55264678       8.90113038       5.85533476    -152.78479033
C        1.06386117       5.95494960       4.88307393    -154.58354982
C        4.76311257       5.97300756       2.37860735    -152.57509528
C        2.76216261       1.83041264      10.32112853    -154.89189869
C        4.33780539       9.91452831       0.83195410    -154.00874121
C        8.72365908       6.30528094      11.06165309    -154.61860350
C        3.44923058       7.21513591       7.58543804    -156.04775356
C        6.83897007       7.34865782       8.41293912    -154.16139666
C        7.98353303       8.65224700       6.87730624    -153.98922621
C        0.21999633      10.98210012       9.53900007    -154.72598992
C        3.52284012      11.36787563       4.08692948    -151.81718410
C        1.12339097       9.73991485       3.48879642    -154.44403377
C        3.79466600       2.46979665       8.35331141    -154.75597992
C       10.91158753       5.72640136       7.20327185    -154.35563474
C        6.42085874       5.42465346       8.26890807    -155.91552008
C       10.89526022       6.84352441       6.39302033    -154.46474222
C        3.26397135      11.06270058       9.22431784    -153.21610653
C        1.34214168       4.13060562       0.24003771    -151.39678185
C        1.15848786       7.41765609       4.10818687    -153.15310329
C        1.19480874      10.79429047       7.66236086    -155.39543498
C        3.80466278       9.58011439       6.26078502    -154.10590621
C        8.46274085       5.28941228       8.96163481    -154.06988047
C        6.88287392      10.96338178       0.10587353    -155.18874215
C        6.68005771       6.44972188       7.72412912    -151.63240309
C        0.13870817       4.43868405       3.46874593    -156.41407702
C        5.43796352       4.69512764      10.56612934    -154.92851598
C        6.55728404       4.27435202      10.35599202    -153.51291974
C        8.90412486       8.45248219       5.52259457    -135.51827483
C       11.17981548      10.64679811       1.24623864    -155.83560613
C        0.05958377      10.79259397       6.40768531    -155.63279896
C        3.48295548       8.59756074       2.03671293    -151.11593753
C        1.59486210       1.65164335       0.50170285    -153.39405998
C        0.75454623       4.94234868       0.36934458    -155.11880787
C       10.17665343       5.53698629       8.07271842    -151.95507012
C        8.32790957       1.06311426       3.01873144    -155.41072868
C        5.82646024       2.84179527       5.70341332    -124.29230337
C        2.38590568      11.29328690       9.86985022    -153.42992291
C        3.91303334       9.33970209       4.72496996    -155.11560920
C        9.00075660       8.08151969       9.87558869    -154.80004112
C        4.20178998       4.68584817      10.05142043    -155.68662825
C        8.65459249       8.83199548      10.63261134    -154.33443131
C        4.87204104       5.17467703       0.32311687    -158.30993470
C        7.50602170       1.62423760       1.49234387    -155.68266549
C        5.55430417       8.06441814       3.79817284    -153.15243603
C        0.05894115       5.30158376      10.46303043    -153.20789220
C        3.25191373       3.74382816       9.95712279    -154.10997754
C        2.42031373       2.21895491       4.37278273    -153.18985163
C        2.11841782       7.66300986       1.68007383    -156.01429801
C        8.90210956       1.02419855       4.10774282    -155.40809360
C        2.36109591       4.50068003       0.61835320    -154.10274235
C        4.26024495       0.94815698       6.84207841    -154.25968774
C        5.30723114       0.20083963       7.31037858    -156.41842062
C       10.55961663       1.45916549       4.94237146    -154.62544056
C        5.49763678       0.31907375      10.01372187    -154.10077182
C        6.90756984       8.12684677      10.96362088    -154.82524730
C        2.48489430       9.76633003       3.51953823    -154.38140440
C        2.64791695       4.68916145       4.84432787    -154.27582560
C        3.12454018       5.84986955       3.31454731    -154.73497648
C        1.22625646       8.71839881       7.52587863    -154.93868283
C        3.05923092       1.17216227       3.94147520    -154.49154414
C       11.01250035       9.55670508       8.23196098    -151.35766797
C        0.79448097       5.75557191       1.23785865    -153.69846887
C       10.39921272       5.22065311       4.27452281    -154.01500238
C        7.76795327       3.87613178       3.97644116    -154.02079293
C        0.76580570       3.60816571       8.71579145    -152.78744132
C        1.79708625       7.80891958       3.24593616    -154.71041597
C        4.30160976       5.87777628       6.09127243    -152.06928778
C        4.96233086       9.30040951      11.23332899    -154.39999611
C       10.34127011       9.81177098       7.52569646    -151.81725937
C        1.20315457       9.24305896       2.08697009    -153.81879401
C        6.31719054       4.06403253       4.71837755    -157.24158111
C       10.34342204       0.12160547       0.36713003    -154.13956513
C       10.46116315       5.72314500       1.30225704    -154.38871012
C        9.08101549       7.37057559       7.47036121    -155.39953825
C        7.28751578       1.24070511       4.77365587    -154.55593158
C        9.82004849       5.98649980       7.01326472    -154.62350983
C        3.82681965       6.48573534       8.60578133    -154.70376381
C        6.98063286       9.90970070       8.91132072    -136.74119085
C        7.27155281       4.41526335       7.46660388    -154.49528952
C        3.33319734       5.51050279       0.15137265    -155.33780510
C        9.36522917       0.17338834       1.07424621    -156.83640450
C        5.52692120       7.34074465       9.00551589    -153.24358913
C        4.34363494       6.32287208      10.75836810    -152.43577366
C        1.22320506       9.92981951       1.14191006    -153.67627794
C        2.01749361       1.19644830       5.45926645    -154.33006907
C        0.59919309       9.82865620       5.21453891    -154.31332347
C        8.27224413       2.35329660       8.89665574    -153.98990092
C        8.47946667       9.27201319       0.65217032    -155.27672012
C        8.51493360       9.14975189       8.63883447    -154.61654841
C       10.98248724       3.19076031       3.29289142    -153.34491815
C        0.17008986       3.00411201       9.47243837    -156.84925517
C        0.74250797       7.62681423       1.35780862    -153.03426150
C        8.79850968       3.98899975       7.57755902    -154.21361841
C        7.04108036      10.49579892       8.62350911    -138.79237883
C        6.06645127      11.23231565       5.00388923    -155.35494873
C        8.56973372       2.94183138      10.53850726    -157.10759542
C       11.19452600       3.39126520       5.78793051    -152.06444765
C        9.50982952       7.32360894       0.65863066    -154.18908597
C        4.24737894       3.55928624       4.65604000    -155.29531136
C        9.03551761       6.63894339       1.41448740    -154.95243866
C        4.83759883       2.07477584      11.20604849    -155.20609132
C        8.01696190       7.60182228       8.70956339    -155.23747637
C       10.39457868      11.38070748       2.00410384    -152.52953661
C        4.69111982       5.26294017       1.47811155    -154.75265354
C        6.65995029       8.92899157       2.94000965    -154.72177091
C        3.37376514       2.89543403       3.23407210    -152.96708448
C        7.52708553       5.69406553       5.15837249    -151.26434616
C        8.70405264       8.09305356       6.07477433    -140.43463030
C        2.39610741       6.57347473       2.54914467    -155.08204387
C        9.85663124       1.78507417       7.98436420    -155.57163377
C        5.52981320      10.14535372       4.17380355    -154.88501679
C        1.88775180       5.76199353       7.87305609    -154.77537190
C        5.13496318      10.77151876       2.71422817    -154.06842140
C        5.00686093       3.02817031       6.16094247    -147.76662704
C        3.70749590       7.59609519       2.12510131    -152.46258179
C        5.15134742       1.76668602       7.10051452    -155.34141450
C        2.75239355       3.58337871       2.78976192    -153.54255654
C        7.54419847       7.06468324       3.72558802    -151.56391761
C        2.87570235      10.29276637      10.90475602    -153.05032374
C        2.69143369       9.24040606      11.10790242    -152.66137996
C        0.98439816       7.32340399       6.24132660    -154.91765203
C        1.29358102      11.32779742       5.99121355    -155.70077001
C        7.78079652       7.27860066      10.68347195    -156.78098142
C        8.30290623       5.99758962       7.41799767    -153.77522594
C        3.92462413       5.14374167       9.13721606    -152.79637856
C        7.43877685      10.87477707       3.53949763    -152.43736160
C        2.71485439       9.21336465       9.34835534    -154.61641519
C        5.96339790      11.22825090       6.19295949    -155.54855792
C        3.27319389       7.41905655       4.39780884    -154.70222226
C        4.84382689       4.24138998       1.27846060    -149.15722915
C        2.26815318       0.01436086      11.05602847    -154.98449700
C        1.85395859       1.56533858       9.12986080    -154.09669149
C        5.13443943       2.07937572       9.57867977    -155.53091972
C        5.42310498       5.83030866      10.30054291    -152.65858073
C        3.79851442       1.97356698       4.77457813    -152.76897734
C        7.50084114       3.15126278       9.87669311    -155.58463628
C        7.50704643       2.59098768       0.81648869    -154.30469659
C        1.42974444       8.62383930       0.98943753    -154.27590578
C        6.72666001      10.17415993       5.44451038    -154.40443854
C        3.43701356       7.44222676       0.71009016    -152.74757159
C        2.36135778       7.91232590       0.51863931    -152.76541915
C        1.97308878       4.57350395       2.65230051    -154.72772083
C        5.93747231       0.00621603       8.32269485    -156.33215036
C        4.66604817      10.99292807      10.63380685    -155.21016078
C        9.23448541       6.05427979       4.88728670    -152.05330562
C       10.05586091       8.97970416       2.06784185    -153.81114954
C       10.25666183       6.87737455       9.96616315    -153.83963929
C        7.18543022      10.09641732       2.91849038    -155.00932070
C        7.02047197       6.07941976       9.69278880    -153.34505896
C        9.96612900      11.29866102       9.25975062    -154.39403028
C        8.91048955       6.57954339       2.76606796    -154.41600621
C        2.58891546       6.42038054       6.12224195    -154.02786247
200
Lattice="11.385853889763778 0.0 0.0 0.0 11.385853889763778 0.0 0.0 0.0 11.385853889763778" Properties=species:S:1:pos:R:3:gap17_energy:R:1 anneal_T=3600 density=2.7 run_id=434 time=1 pbc="T T T"
C        2.90165071       0.01809098       7.15764873    -153.76855761
C        4.38354236       0.66650511       7.85088783    -155.47417292
C        9.57510462       0.02474795       4.43787566    -156.26300667
C       10.64041065       3.21150533       0.74502538    -157.31393084
C        9.37553337      10.66936488       1.58986371    -155.22091923
C        1.23352064       5.37416858       3.24832719    -156.49993079
C        1.28065807       1.79685853       5.61106266    -155.28083705
C        0.46144589      11.38129955       4.19008532    -156.51090489
C        9.38734050       2.48862886       2.56345669    -157.12897139
C        8.80825597       7.59250865       0.49267956    -157.03464561
C       10.74861042      10.53925872      10.39512520    -155.63195592
C        9.45545068       0.14380903       7.76856811    -157.44696529
C       10.44801249       1.77558976       4.72459423    -156.61393714
C        6.58500860       5.66243563       8.20530669    -154.78634354
C        7.30724747       5.08274765       2.68322449    -154.33601536
C        5.13868635       4.32508739       2.07625600    -155.45376971
C       10.92063929       7.31233694       4.79246530    -156.07687264
C        8.57411727       7.45341906      10.50989461    -156.65706268
C        9.67695108       8.59620583       0.63202306    -156.55273483
C        2.61942955       9.67113291       9.60647264    -155.09680423
C        5.68082378      11.11014544       0.35369358    -155.69202082
C        5.79249624       9.22057190       1.01708808    -155.60480021
C        8.47447966       0.42882086       8.61150842    -156.13474154
C        7.13715420      11.17413394       0.56774877    -156.57142238
C        3.08828762       4.31904150       9.15402158    -154.77529558
C        9.22157385       6.00226921       8.99172762    -156.26800248
C        9.53839662      10.54552094       5.24745541    -154.68476555
C        3.05041827      10.33041939       0.99287265    -156.16004300
C        6.57314454       9.76433751       5.47237157    -155.94071408
C        0.09298064       1.48223323       3.87624564    -154.62260873
C        0.73448094       3.90456226       3.19752351    -155.53724166
C        1.53130626       1.34370155       7.71424620    -154.42941952
C        1.09139444       0.31069377       9.56439053    -155.51992256
C        4.19585795      11.27469380       1.01334783    -156.58429033
C        3.99990740       1.66613754       4.65531131    -156.10346293
C       10.94106551       8.59302917      10.72726194    -155.06045322
C        9.02816235       0.74876336       0.93986694    -155.07490218
C        0.54857499       2.97886957      11.10160605    -156.15151811
C        0.18539130       8.16518294       9.42609795    -155.51820584
C        0.80899338       5.38640837       1.72277078    -156.76346632
C        1.75118987       3.05389096       3.16174915    -157.34610324
C        0.45226320       6.86732084       1.33657400    -155.95863094
C        4.50631602       5.21827347       8.97548001    -156.94764054
C        2.87070396       6.69122723       9.78928391    -154.72944995
C        4.85531522       2.57689200       3.95895248    -155.71328426
C       10.12828633       4.48009440       2.51980332    -155.73393327
C       11.10380352       7.18358571       8.64186310    -156.01300743
C        2.61369108       2.04801908       8.36926299    -156.82448527
C        5.28989049       3.09464093       7.68590681    -154.94318715
C        2.89060643       0.59297413      10.13449162    -154.34140942
C        7.82232073      11.10332531      10.45496925    -156.01147227
C        8.14096523       3.75597687       6.74418283    -156.83935528
C        8.53740928       6.62242251       3.07344047    -156.14487488
C        6.94088485       2.39798607       9.34590738    -154.65531864
C        7.06726782       2.61009315       6.22095730    -155.45906960
C        0.89606442       5.01381769       8.19541239    -156.68110518
C        7.59776891       9.80377811       8.05407978    -156.33840189
C        5.63855949      11.10576188       3.65562195    -157.02164661
C        1.71378734      10.87796511       2.16336917    -154.04928623
C        6.02497260       6.54264183       6.64142550    -154.29902869
C        4.05722379       3.16564311       7.02485552    -155.94817119
C        7.28159514      11.10085458       9.02375603    -156.16312433
C        0.59177065       1.46608809      10.37075947    -155.78287720
C        1.83898619       7.80076730       9.41604424    -155.68609146
C       11.35375717       3.36766232       6.74968220    -155.64892653
C        6.25420400      10.24739375      10.15856131    -156.12693229
C        4.79806714       8.33997857       1.72757561    -154.66574743
C        7.44658755       4.79601769       9.16497477    -154.70428934
C        5.85936536       2.96001459       2.15125462    -155.49197450
C        6.51256041       7.39865310       9.16777569    -155.17903558
C        9.79622928       9.33897339       1.72006095    -156.85743528
C        7.12571141       9.69644366       6.79551026    -156.09910767
C        9.70541571       4.13223379      11.28278914    -154.82523473
C        1.20149223       2.98515456       6.04237019    -157.51317734
C       11.16641433       3.74247324       9.33343987    -154.48671988
C        2.08238159       8.44724470       2.68280321    -154.55035849
C       10.55576821       6.40447450       9.61385068    -155.50581572
C        5.22080113       8.81130738       6.41087335    -155.43122881
C        6.00743839       3.42534306       0.33471906    -156.70702709
C        6.98129324       4.41471683       0.40527605    -156.35623121
C        5.45799124       3.75311902       4.64887830    -155.48429744
C        3.46034317       8.69921365       6.04183505    -155.20673623
C        2.30890315       5.35329831       3.93061309    -155.42690081
C        8.45792463       7.06542332       5.75244080    -156.83791543
C        2.96021954       6.51775236       0.81789712    -154.00229925
C        1.80671868       7.88829036       1.10074792    -155.83657691
C        8.21081745       0.56107211       4.01232937    -155.65390007
C        0.82435632      10.01946034       3.06898860    -156.53823346
C        8.98804999       3.81165369       7.88191428    -156.11832592
C       10.63904435       5.26172189       6.25337283    -154.27023293
C        9.07434338       5.27800366       7.44654200    -156.30145871
C        3.71184530       7.98789381       4.29307037    -154.64223971
C        4.12788440       3.56453512       2.53188372    -155.70616494
C        3.76448210       9.90360927      10.17257730    -156.98117786
C        3.87213535       5.05747105       1.46664600    -154.79333651
C        7.21518145       6.50496604       1.04546391    -153.99856897
C        7.69198686      10.94371841       1.91708176    -156.18499272
C        8.65417121       8.81289001       7.87924999    -155.74037143
C        1.99685106       4.70052453       7.48608507    -155.38387563
C        1.14948165       9.48886816       4.95350682    -156.53751585
C       10.72024826       0.51285302       3.48717963    -155.48416567
C        9.78094947       9.57365861      10.65316281    -157.94984163
C        5.12766484      10.06983135       9.29278098    -155.92085933
C        2.01644611       6.92488772       6.83000940    -157.18950950
C        5.83879112       4.70482839       8.80429369    -156.68043409
C        8.43540341       9.71840697      10.67475039    -155.70237038
C        6.22776605       1.21950465       5.30053626    -156.24577495
C        6.09077145       8.20496512       7.19032613    -156.55674392
C        1.67443783       0.43181306       5.22692672    -155.83582942
C        8.73243757       8.78555258       9.65882480    -156.52121372
C        4.30411464      11.26704250       2.45965186    -155.07704692
C        9.69752532       2.60297699       3.88575283    -155.94328574
C        6.21535546       8.44953326       3.14155065    -155.96992544
C        0.07994964      10.32213049       7.94199744    -155.52810781
C       11.34041295      10.82457684       9.14826034    -157.99924156
C        0.39510507       3.45475272       8.21681779    -157.66781287
C        8.63875476       3.61566899       5.45960803    -154.94063690
C        0.44231537       1.55347452       0.38234039    -155.92436586
C        5.52999538       1.65923772       1.24982518    -154.36657888
C       11.22357131      11.06520547       6.36870014    -155.02279307
C        3.69158986       4.38292753       5.93390854    -156.35250747
C        0.13037144      10.00199444       0.55515830    -154.14635001
C        9.44384849       9.28042733       3.23913880    -156.17478693
C        5.21719181       7.45132406       0.24804538    -154.81549588
C        4.05607382       4.38554627      10.33189955    -155.82609880
C        2.92219079       2.63128222       1.34673018    -154.29054634
C       11.15787494       7.66131337       2.54330373    -156.40178910
C        7.20556041       7.62553901       2.63799987    -156.37759112
C        3.32690096       9.43257650      11.34939639    -155.22551917
C        1.10020254       6.80614465       8.02178950    -155.02785023
C        6.31230601       3.55725956       8.87502262    -156.12051104
C        9.35004044       9.54249553       4.43650935    -155.43007067
C        9.69480410       7.75444965       6.51697812    -153.95210489
C        6.87954925      10.90074820       3.26777422    -157.09602675
C       10.34900111       1.71176066       1.49857193    -155.50506565
C        0.40242276       6.00381769       9.12579605    -157.73008741
C        1.86620977       8.47814591       7.28962217    -155.17247551
C        6.52436754       5.71282942       4.02608348    -155.77914071
C        0.86096297      10.49746125       5.54233764    -156.76156860
C        2.33241494       6.82550060       4.23789452    -155.61097007
C        8.54129185       5.08275903       9.84562112    -156.69213328
C        9.89324815      10.04732152       8.02486368    -155.68124524
C        5.21831901       3.49667543      10.57256235    -157.46625655
C        0.04845592       6.12982493       5.22770095    -157.00585989
C        4.38150429       6.48288887       9.74100789    -157.04269239
C        2.33246048       4.71495041      10.91477557    -154.41709881
C        0.90561488       8.43932015       3.18327980    -157.66181558
C        7.30630244       6.53190497      10.11667276    -155.91229632
C        2.02762702       1.78070200       2.96092546    -155.62783619
C        5.40601481       5.96046035       3.07788095    -155.61798031
C        8.39907115       4.61523310      11.05681410    -156.88637587
C        9.05567058       5.53843229       2.01066210    -155.32176782
C        0.29944454      11.11507551       2.21391097    -155.21844117
C        7.57178640       7.72189749       1.31716112    -156.16981307
C        8.96885344       0.53000808       6.40621653    -156.62084924
C        7.54950428       0.97845360       6.43340595    -155.54201949
C        6.38074638       8.74892429       4.44705265    -156.18088612
C       10.07966873       7.93778467       3.35173351    -155.87987901
C       11.25590714       4.01798814       1.65351063    -156.78572328
C        4.43486979       6.91189646       3.80206680    -156.03972471
C        9.11190531       7.58605287       8.77027276    -154.76287271
C        2.14999079       4.18091971       6.07253131    -156.29357266
C        7.46843700       9.94240088       3.97866140    -154.77671406
C        0.58224638       8.37282676       4.75406082    -156.14909415
C        1.87060471       3.10729061       8.46439180    -155.75994931
C        8.00290037       6.52146415       4.45915582    -156.50601139
C        9.99064274       2.95018860       5.38399457    -155.77578935
C        4.32909521       4.25170556       4.60885702    -155.62944895
C        5.17760320       7.66904436       8.63251532    -156.13927634
C        3.29215134       7.06453522       6.66225023    -155.03502529
C        1.25110040       6.58256064       5.33355524    -156.46556087
C        3.94461769       1.84220839       7.90347909    -157.54042769
C        5.78206679       8.85788691      10.98770197    -155.80962940
C        2.70919562       4.02715375       2.68497791    -156.04933798
C        5.17310579       8.08247610       3.94830671    -157.22630239
C        0.15315568       5.09902942       9.91780743    -153.60567013
C        2.82766543       1.09482614       4.00802551    -156.38939130
C        3.45149636       1.74678355      10.92964550    -155.85471603
C        2.66631649       9.04338524       8.20174292    -157.94029969
C        6.53168864       5.93306599       0.44421567    -153.76614402
C        5.07634880       0.11104657       8.57096339    -155.68369691
C        8.30029887       1.34449856       2.53437722    -156.74792218
C        6.72869807       1.70235594       2.22182414    -155.31427032
C        4.87385139       2.11165462      10.23550691    -156.50629434
C        3.64116192       9.20423320       7.39185575    -154.90961199
C        4.55731326       6.55538261       7.95722032    -155.24755402
C        6.73986760       2.56836399       4.81056881    -155.53402918
C        2.11911235       4.43235352       1.24842472    -155.65666942
C        8.49811670       6.36461262       6.81277122    -155.41176701
C        5.38024863       7.32023873      10.05254763    -157.12481166
C        9.82231428       1.77416652       7.11461020    -155.28237278
C        2.46162161       9.63008690       4.07867474    -153.88634157
C        1.77758228       1.94806267       0.65640814    -156.11791498
C        2.01509119       3.15302759      11.02133578    -155.88216151
C        5.04682528       1.16612777       9.29459133    -155.22598397
C        7.97301250       2.02712604       8.05750692    -155.60681388
C        8.83603745       4.08398055       2.17907026    -155.54064723
C        5.09783391       0.77869449       2.75355490    -155.91375719
C        9.28293222       2.45410695       8.17202584    -156.88407081
C        5.41207209       0.53827421       4.68921838    -155.86882290
200
Lattice="11.385853889763778 0.0 0.0 0.0 11.385853889763778 0.0 0.0 0.0 11.385853889763778" Properties=species:S:1:pos:R:3:gap17_energy:R:1 anneal_T=3600 density=2.7 run_id=434 time=2 pbc="T T T"
C        9.08814303       9.98554188       8.98061503    -156.00860036
C        5.84107968       2.78821344       6.61179951    -156.16362478
C        0.14503756      10.04570473       8.46239927    -154.05457234
C        9.73382342       3.80481079       3.08338032    -154.97513015
C        5.41251614       3.80177077       0.16656252    -157.60487847
C        8.44282699       0.23851656       2.16578297    -156.79039676
C        8.87388403       6.82406599       1.86073317    -155.88709884
C        0.15820189       3.13471914       2.15987371    -155.07771971
C        0.57927809      10.88862226      11.01598443    -155.31913142
C        4.77998641       6.15118479      10.35857661    -157.09012300
C        6.69117030      11.30661973       3.79936836    -154.70695072
C        8.27832417       4.44526508       8.09813165    -156.64110874
C        0.04073232       4.98921286       8.21492774    -154.50409060
C        6.38008600      10.66969507       0.47848026    -156.10921759