200
Lattice="14.919689298659158 0.0 0.0 0.0 14.919689298659158 0.0 0.0 0.0 14.919689298659158" Properties=species:S:1:pos:R:3:gap17_energy:R:1 anneal_T=3100 density=1.2 run_id=289 time=0 pbc="T T T"
C        4.20489063      12.94709750       9.98944813    -154.08954109
C        3.30178692      13.82744868       2.46327054    -151.78525433
C        8.87439531      11.24416416      10.99843688    -156.45981702
C        5.95686499       5.22377114      13.20662549    -152.98122351
C       12.91136484       0.50979236       9.19448233    -153.12625886
C        0.77676826       4.25619944       2.85853787    -155.41065548
C        5.18327910       2.59647353       9.09748943    -156.16464558
C        9.62478108      11.81985529       7.88657760    -153.11723681
C        4.57351140       0.49202450      13.48484786    -153.94395215
C        7.69318859      10.32323142      13.24992243    -153.87503313
C        2.34574815       5.55873308       2.73994126    -153.97545851
C       11.98216659       5.47078151      10.28687214    -154.93871388
C        1.43893689       3.07487337       1.83731498    -154.45636485
C       11.63653707      11.69287382       2.64430605    -154.22729890
C       14.43041301      13.38958564       6.75912652    -145.65811966
C       10.72099034      11.00082403       6.47880048    -153.27427033
C        9.68375862       8.75611201      12.13333288    -155.37399606
C        0.53072020      14.75346904       8.38183669    -148.50391056
C        3.79879161       5.20674777       6.93159813    -155.80791603
C       12.95591503      10.77920696       7.45826316    -154.76799129
C        2.57586944       1.64710386       5.59016887    -153.49794658
C       11.72002765      11.35249603      14.68797160    -153.69716179
C       12.79827360       4.41396024      10.90732234    -154.34240741
C        2.15031514      10.32418628       5.26560594    -153.00724485
C        5.79267381       0.23205190       9.59691111    -152.42775411
C        4.22686734       4.12550297      13.56468312    -151.04642813
C        4.12560740      12.54501187      11.77273891    -154.13570766
C        5.33968220       5.79471781      11.10709698    -155.18357894
C       11.89402107       4.69589761       3.59190028    -151.23270765
C        1.80578967      12.72128800       5.51231793    -154.77526015
C        0.01022506       1.90642298      10.19812982    -155.76518156
C        7.23316981       4.95630587       0.39174031    -149.01467521
C        4.44230765       2.01569478       3.54550005    -152.95180503
C        5.58345500       9.93506586      11.84408487    -156.25411799
C       14.54792048       6.14928422       4.58325395    -153.51684923
C        0.77039158       6.14355506      12.05296052    -150.00715765
C       12.82208542       8.04196617       9.81876688    -151.87413564
C        7.45387677       0.47349275       2.31419301    -155.88842042
C        2.02613857      12.56182636      10.37646487    -154.37253136
C       12.56682446       7.24950687      14.17935940    -156.81474346
C       14.57905787      11.23771886       1.04836628    -156.64629308
C       14.91287100      12.55108418       8.48182845    -152.33581861
C        7.39322824       6.13451373      11.67837188    -153.80220002
C        9.18332240       7.19785491      10.52894410    -155.21180201
C        7.57945580       3.32926899      10.88183951    -153.55664939
C        4.36890278       2.18434695       6.92318343    -152.72197579
C        9.20786529       4.38550839      12.17118414    -152.65719193
C       14.20267887      12.82794886       6.26151012    -147.54308643
C        0.89832941       7.45475704       5.36796993    -151.72411202
C        6.56097813       7.95191092      10.78178807    -153.56670027
C        6.06868806      11.52614629       9.30946837    -154.69706403
C        6.09132123       2.21569322       4.38864153    -155.46693342
C        4.20621849       7.34014398       4.15377578    -154.81829917
C        7.85945361      10.87978059       6.44447027    -153.31107850
C        8.84839029      10.17430308       0.52348117    -153.00090909
C        1.44766193      14.90230786       5.88525048    -154.58446171
C       11.08103228       5.39310961      12.26914682    -153.72242894
C       11.82274971       1.98736229       9.82935986    -153.46282413
C        3.66439505       2.73973239       9.64143146    -154.17014868
C       12.71352976       2.32763565      13.21587570    -152.68155976
C        0.82745940      11.36023934      14.74080222    -154.02203783
C        6.81562739       0.39288018      11.55076378    -155.46857060
C        7.00133276      14.39879819       2.30327179    -152.20174911
C        1.10551615       9.28343351       8.86657739    -152.22376564
C        1.85468150       0.88354549       2.79999301    -151.12066258
C       14.47673864       1.74675246      14.70772527    -153.91288693
C        6.84891321       1.26399757       3.67277991    -154.76564709
C        8.28118846       3.69414491       2.48062214    -152.01421676
C        2.32078751      10.99845180      11.67729766    -154.36805057
C       14.54105742       2.81007872      14.49799920    -153.76247735
C        2.73428670      12.47450142       5.11761755    -153.01804207
C        8.55292077      12.89381929       3.55883825    -153.01410024
C       10.31107187       4.51366852      14.66068349    -152.56023088
C       14.57798365       1.07346419       6.12602443    -153.11532949
C        0.80719547      13.26806477      10.09348312    -157.24524197
C        0.84171814       2.63624942      11.73199324    -153.54228700
C        1.53314727       1.82426025       9.00495751    -151.85475251
C       14.53076284      10.39721816       2.46374797    -152.88119684
C        9.16538893       0.48363516       5.23937713    -155.19854911
C       10.82414507      12.04515752       4.61846442    -152.08551465
C        8.31690620      11.44731065      14.87624316    -155.65998166
C        0.04061020       3.38420328      10.67754420    -154.94526958
C        0.06618673      13.09110234       3.51209486    -150.53455969
C       10.51068240       3.38723198       8.32617133    -153.58706528
C        7.87792418       7.09379007       9.10603841    -153.63635151
C        9.24865572      11.08956634      12.55350117    -154.18390822
C        7.54815429       9.36379096       8.06082465    -153.86632516
C        3.08285540       3.86227489       6.29682503    -154.71230530
C        3.55102033       8.92440611      13.09328061    -152.57079415
C        2.97899944      10.40851236       1.67782350    -151.61050780
C        2.31555070       6.67542706       6.76485568    -153.17428689
C        4.21639371      10.24503733      12.43867925    -156.97108805
C       13.53212835       1.96848889       9.24768594    -155.81432915
C       11.73505178      13.43419551       3.28303287    -154.37393721
C        5.89399342       2.69201922       8.03464060    -154.67804936
C        9.42573751       5.98548095      11.48214813    -156.04082474
C        9.76354911      10.45812033      10.93646049    -155.38381476
C        1.86867616      11.15782392       3.19976609    -151.27129799
C       12.63320215      12.44272248       7.99544658    -154.61022601
C        3.31044034       9.71000235      11.76220561    -155.96107721
C        8.77608948       8.60758651       8.03801245    -154.14846353
C        5.73236842      13.32282003      12.30778881    -153.48010866
C        4.64517066       4.86869745       8.18788073    -152.77910487
C       14.05676431       3.40755260       5.29344608    -154.79224254
C        1.09059497      14.62383186      14.05306423    -153.54379817
C        2.97609010      10.87246994       3.80780310    -158.85742016
C        9.03178311      12.48072293       5.91222528    -152.70411047
C        7.69297971       8.53874706       9.05381949    -157.47877159
C        0.85076097       9.09929471      14.25465907    -152.68427176
C        8.44715509       0.98829663      11.79449182    -154.29250525
C        8.78168436       9.83488015      10.06128643    -153.96098406
C        4.25240984       9.97694543       2.65686843    -151.68954475
C        2.65795757      14.72436073      13.32837016    -154.10577532
C        3.50700725       6.34288211       5.03964725    -153.93547121
C        2.39510248       5.35857053      10.17102075    -150.52034489
C        8.87776716      14.83008164       3.50887221    -154.10980500
C       12.00660504       7.54245497      10.10877581    -154.10622570
C       12.65595468      13.48948788      11.06963364    -152.75768421
C        2.17755849       7.78387046       1.59979352    -156.96856498
C       11.13004346       2.97341948       0.36523250    -150.49818708
C        0.38633789       4.12848690       8.12453173    -152.56502654
C       11.32140339      12.21166125       9.72883100    -153.50288937
C        1.03261557      11.55325536      12.78538299    -156.18962479
C        2.69633101       4.15341771       1.60121089    -153.75027486
C       10.80152682       6.71499408       1.22717727    -151.46688937
C        7.14729208       1.47906787      13.56981549    -153.14833874
C       11.34015744       3.51806274      12.83852692    -152.81725383
C        8.24514250      10.69086748       1.23936069    -155.50341809
C       10.93370035       4.83611285       7.18236827    -153.83736748
C       10.38390980       3.70699076       4.95097954    -150.42033318
C        2.97059966       7.00709176       0.97048401    -154.71616769
C        1.45828326       3.33280495       3.88156605    -152.77651036
C        8.23502695      10.75341082       4.53827109    -153.06335075
C       12.59417225       6.78035724       6.72466204    -151.04339230
C        9.08616538      10.83666269       2.79360738    -153.49998223
C        4.41219972      14.26925052      14.89554924    -154.23000606
C        9.52389415       1.51531824       0.49918446    -151.31300076
C        8.87725989       1.71533160       5.79896992    -155.22519280
C        1.46833763       2.99609741       7.17823551    -154.46014615
C        5.77620247      10.37483862      10.60939106    -155.08355090
C        8.80569014      12.65276187       9.90718096    -155.43398388
C        6.06264559      14.19782997      14.33028697    -154.19245091
C       11.85443913      14.12330612       1.70136677    -154.78611163
C        2.19608875       1.33215966       7.55937390    -153.43434812
C        6.60525977      11.53970829       4.06583913    -153.00246183
C        4.01187461      11.04714966       5.18791912    -154.12403675
C        7.95734169       8.30923748       2.50150971    -149.40302636
C        4.73016813      14.67376806       3.35934708    -152.72747481
C        5.33642971      11.60049110       7.84504119    -153.72633107
C        4.63936691       1.97703787       0.94024628    -151.47936918
C        1.38486346      12.75276854       6.69465854    -154.80414952
C        7.06153370       5.82403499       2.77619611    -148.17318285
C       13.27222737       6.81898432      12.84950781    -154.33807136
C        7.86128873      12.83516999      13.84053325    -153.78722712
C       13.47898442      11.98876110       5.65924703    -153.71042571
C        2.32098147       9.80514521       8.32205349    -152.74874331
C        7.12512142       2.26206361       1.39132966    -153.50735738
C       10.46243212       6.37903252       9.61884305    -154.09880023
C       11.83713229      13.20492465       0.62015927    -156.08286614
C       13.71440220       6.28930551      10.81493962    -153.85871157
C       11.82012385       7.69380030       0.13944583    -155.49885743
C        2.05467993       0.42066362       9.92236921    -154.26027511
C       11.19837563      10.44985482       8.01153000    -154.31143820
C       10.84412253      14.58081840      11.35079518    -150.94526956
C       14.02698461      10.26846124       6.03537239    -153.77339483
C        3.08571998       1.10396301       9.88836724    -153.52363083
C        2.46867147      13.27585285      14.04831976    -156.25517147
C        6.06215324       3.06195292      11.72675643    -153.12543540
C        0.04801619      10.99507995      11.64192308    -152.76773959
C        1.78995988       1.85453230      14.72404741    -153.15571032
C       13.30487165      13.09856218      14.01669002    -152.48501711
C       13.01724988       3.08709259       5.18774009    -153.02793393
C       10.86736741       8.70475844      11.37776998    -154.58861209
C       11.60441498      14.72142155       4.76272290    -151.92744834
C        9.33150475       1.65999447       7.63677724    -151.06511169
C        3.26375663       7.63640425       2.10404918    -153.76948917
C        5.08650999       6.81976014      12.33897096    -154.60731876
C        0.71717007      13.85208109       8.90554762    -154.82431121
C        3.56165807       2.47159573       7.83468692    -155.96658255
C       13.48128205       5.62245507      11.84459214    -156.99026401
C        8.72928641      13.35782162      13.62859907    -152.01443950
C        2.60791693       1.55388564       8.82644343    -158.02682722
C       11.88075746       2.26336163       7.83409014    -152.75588015
C       11.39209288      11.82852363       1.43204847    -156.70692959
C        0.69271521      13.88378543       7.81539577    -153.06555061
C        9.19203550       7.02462239      12.89908594    -153.16806060
C        6.04962070       8.39984475      13.13407104    -154.76444355
C        0.76369563      14.48087140      10.91075386    -153.79689550
C        3.10422039       9.91708764       3.07033778    -157.11223979
C       12.64445160      12.20681235       9.88380181    -156.80818232
C       12.00544131       5.54139640       8.15238679    -154.56159341
C        5.70290204       0.72590256      11.41605390    -154.08733069
C        1.20573618       7.91495485       0.42240923    -155.58186346
C        3.01225543      13.96438159      10.84885207    -155.17359820
C        1.65296730      12.53271805      12.80025792    -154.39408278
C        1.81505480      13.22631948       0.73688644    -153.50911532
C       13.64641317      10.75866255      14.69523749    -153.47703383
C        7.39169151       7.71346445      11.58002129    -155.93701575
C        8.85869980      13.08185213       8.86320554    -155.90731110
C       14.28038061       5.14893397       4.63526399    -154.35060258
200
Lattice="14.919689298659158 0.0 0.0 0.0 14.919689298659158 0.0 0.0 0.0 14.919689298659158" Properties=species:S:1:pos:R:3:gap17_energy:R:1 anneal_T=3100 density=1.2 run_id=289 time=1 pbc="T T T"
C       10.78542847      14.00003965       6.37527276    -157.21613023
C        7.60432692       0.49695545      14.08815534    -155.53343140
C        7.38297841      12.57608958      13.06032302    -156.23144591
C        5.95908802       0.41421683       2.13181473    -155.60402534
C        7.60134298      12.82080233       7.58326032    -157.00269014
C       10.09333393       3.52598509      10.06380786    -156.24017325
C       14.35535205       4.86756355       6.48997533    -157.35264542
C        9.46194760       0.88896134      14.26495365    -155.91111485
C        2.67968064       6.71851513      13.21319016    -153.36781594
C        3.10953180       7.30945418       1.28710518    -154.75214725
C        5.46066596       9.09046225       9.11223008    -155.16817017
C       12.58405670      13.06520176      11.98424043    -155.49256346
C       12.62080389       8.15793691       9.48089560    -154.55736127
C        9.16750753       1.22877517       8.89428326    -154.97830715
C       11.96821668      13.12167278      13.14964720    -155.11013267
C        2.29810958       9.21944297       0.95089894    -155.73131320
C       12.45021217      13.48745880       9.87826661    -154.90613372
C        0.29421478       1.19142671       2.79365214    -157.17093758
C        8.91863219      10.67948376      12.87536363    -155.85841782
C       10.83266421      14.04761854       8.91288811    -155.79331141
C       10.02174926       6.64648287      11.59937212    -155.65045344
C        2.98480320       8.84279541       6.41509341    -155.60641582
C        5.76256588       8.17640749      12.02003276    -154.42840882
C        1.48553854       9.91881832       7.96148936    -157.06681539
C       11.50173768       1.34838184       9.03135044    -153.92531849
C        1.13779490      10.91060467       2.16599573    -155.01649413
C        9.73400813       0.44138856       6.17002259    -155.75218755
C        1.38550054       0.25149971      12.05027497    -155.73191892
C        6.51195203      12.55224792       6.37888332    -156.37735149
C        9.28753643       4.59683087      10.66371365    -154.62896294
C        6.57998581      11.31016887       9.35515246    -155.60078076
C        6.39052068       0.29419539       6.46576067    -156.05386339
C        6.06275002       8.97755004       3.41929439    -155.15427393
C        9.58293136       8.78405659      11.50233446    -156.05805589
C        7.44132931       8.75084536       9.65048771    -155.65871115
C       13.18458911      11.00280835       8.66313251    -154.19152835
C        5.11288800       4.21540901       7.84989009    -156.30780459
C        3.89089085       9.88553249       3.22423438    -156.17162760
C       11.75201547       6.38095716      10.03848915    -155.17039196
C        6.04196690      14.14981841       8.71487399    -156.74675088
C        1.84292478      14.53711863       8.01630430    -155.48127250
C       13.81884002       2.10270641       6.08799414    -155.76134102
C       14.70517401      13.69854257       9.26194916    -157.29312366
C       11.35288394       7.00315296      11.15157257    -157.40348755
C        8.02870256      10.68233342       9.89906465    -155.00851582
C        2.71074343      10.85826640       9.92871008    -154.70437105
C        9.39154158       5.42572405      12.07626507    -156.21876399
C       10.30778954      11.91483403       0.87946496    -156.61474254
C        7.45662200       8.93802779       4.28712796    -154.47557596
C       14.72953786       2.49937619       5.06484660    -154.85310889
C        9.66925668       0.78850409       7.55386853    -155.45515866
C       -0.20283467      10.57973072       2.28104146    -156.03137194
C        2.65288487       7.51740481      10.13393040    -156.62719507
C        1.10228157       0.73878571       8.55997778    -156.68150375
C        6.53307831       5.41707063       0.14465564    -154.29344091
C        7.13663942      14.10059836      14.59327634    -158.06083643
C        7.62302129       3.36574763       1.62373963    -155.00292420
C        7.70548241      13.52041640       8.85895343    -154.41667318
C        1.04416341       1.53469892      11.66257193    -154.82572265
C        4.60093379       5.17559546       7.20873136    -154.52349727
C        4.43647405       9.46057498       8.31144559    -158.22020333
C        8.24051739      11.74695769      12.96116676    -156.33560206
C        2.34607638       1.65753272      11.41696400    -156.87883571
C        2.85109295      10.87408127      11.32317884    -157.82750084
C        1.08744393       9.48031373       5.61623356    -152.63755030
C       12.17510801       6.09324587      13.77399144    -154.90907925
C        0.61007952       1.94348349       8.43511490    -156.20136070
C        9.81342564       7.32538841       8.67899214    -156.38216488
C        5.68977271       8.91408168       4.79327842    -155.68481707
C       11.31437622      14.75472229       9.94491286    -156.06718756
C        6.46480581       2.12144554       1.28361696    -155.17834346
C        7.31179657       8.24608244      12.51017440    -155.12006080
C        6.06944896       0.97654738      11.61406802    -155.13499035
C       14.16352961      14.74954516       6.69653843    -156.79538435
C       14.17813598       9.74555597       7.64722103    -155.59987487
C        2.62811819       1.85093665      10.02958209    -157.47557340
C       13.35713532       7.09980271       9.97548330    -157.90298627
C        7.03667750       2.01132331      12.13014007    -156.23194105
C        4.77991038      13.36016402      14.01160241    -153.10149628
C        0.74836416       1.26572527      14.61380583    -156.56945382
C        7.14964939       2.96992827       6.89861070    -154.22479680
C        2.69886736      13.80870955      13.19319777    -153.17892022
C        0.44802633       9.93235048       8.86154946    -156.32630281
C       14.04984157       6.94508553       7.63394250    -157.20065457
C        4.20478620       0.98512023      11.69206815    -154.07789693
C       12.44105148      11.65187451       2.41733282    -154.15870111
C        6.88671970      13.85029073       6.04974005    -155.74151178
C        3.14941213       3.31451342       9.39334686    -155.14162689
C        1.00290151      12.11909950       7.52405899    -154.65141605
C        8.57847819       8.15541548       9.31734597    -155.79528380
C        1.79072079       1.85762068       9.02964960    -156.35176504
C        0.23118357      10.95892954       0.63401966    -155.45761307
C        1.56640326       4.80892917       8.78372836    -154.50389136
C        0.51508586       4.06403385       7.48258226    -155.36120943
C        8.85987845      11.34837819       1.74332094    -152.60487189
C        1.82761718       7.15106676       0.51347006    -154.12351808
C       10.30034462       4.63211594      13.72062371    -157.51665165
C        0.01255775       6.34274783       6.89222507    -155.81029457
C       12.08172568       8.41328739      11.74051238    -155.29962355
C       12.69207525       5.42181509      11.13889083    -154.26180408
C        1.97338254      11.19134846       7.34442593    -156.93183002
C        0.11700289       9.27776403      10.12911134    -155.48405284
C       14.67548382       8.27827913       7.51221276    -156.24252551
C        7.11176830       4.11311962       0.63445084    -157.19187628
C       12.76145180       9.73979697       8.87787160    -156.03893640
C        3.54733517      10.49101825       8.52960129    -155.16400046
C        5.19779596       1.55795872       8.16396447    -157.16614901
C        2.99660468      14.22496889       4.42792507    -153.97088589
C        4.85662742       4.44975257      14.66059397    -154.80022798
C       10.72116937       0.66826930      13.53127793    -154.08963866
C       11.44799696      11.79604347       1.26036910    -156.37034984
C        1.16521132       9.03519972       6.95875196    -157.28931787
C        2.01491896       1.49774285       0.56818802    -154.94963515
C        4.71879933       6.99255998       6.80208031    -154.55842867
C        1.47093963       6.12406995       7.91734200    -156.92208441
C       13.48544465       2.11795433      13.94400130    -152.84616167
C        1.22141678      13.90917874       9.45511438    -157.09303716
C        1.04060506       1.81911296       1.78679691    -155.97362064
C        1.70097886      14.22960891      10.62780196    -154.22061688
C        1.56689561       8.05017200       9.73168066    -155.46354386
C       11.04561294      10.77707345       2.77055646    -154.20024643
C        9.96608390      14.61923660       5.42688779    -154.24314748
C       13.84676968       4.33051442      10.46352126    -155.26630925
C        6.82356466       0.21001999       0.89089792    -155.59218902
C        2.31374542       7.12565853       8.99136568    -154.77853576
C        3.03882740       9.21393760       2.17317210    -155.38397726
C       13.23307810       6.94326533       8.49952320    -155.46476923
C        5.96147517       0.51694038       9.20107683    -157.14616183
C        9.60143177      14.60383948      14.46551904    -155.42746583
C       11.15387020      13.51732802       7.48978847    -155.24466501
C        5.84016318      10.19662294       9.76210191    -157.05774829
C        7.44059825       3.99207619       5.56414893    -160.18911348
C        6.49940457      13.46061828      13.65952758    -156.64419209
C        2.03083827       6.68731806       6.55178760    -156.84655738
C        3.87619496       7.71853714      13.53638047    -153.41783330
C        0.82394133       8.85568602      11.15615291    -154.96596459
C        6.30802972       4.64449928       5.82390072    -152.28934941
C        6.44569369       0.36686173       3.64574544    -155.93176176
C       10.47873934       6.37673489       8.45506252    -155.01459523
C       12.81031379       5.21417778       6.21888457    -155.19110506
C        6.07426802       1.64040492      14.61367155    -154.25950431
C        3.22126536      11.88224943      12.05530291    -156.24863792
C        5.43715253       0.19968214       7.60765401    -156.58238591
C        4.31989160       3.29098507       9.02121997    -156.41539786
C        8.54420767       3.73110098       4.71408471    -155.37211437
C       11.32875880       5.07814005      14.25262999    -156.22755372
C        1.47464717       7.12850819       5.52432828    -154.10762048
C        9.06733673      12.55151686       1.09717157    -158.34039957
C        3.15308238      10.04967892       0.00468244    -156.16044172
C       14.62280240      13.98300137       7.72593731    -155.62665176
C       14.74815763       7.11017189      10.19735400    -154.04849480
C        4.62852029       3.41460961      13.77775120    -155.11981326
C       13.81475203       6.28368078      13.74331656    -155.90941726
C        8.42549170      13.51218073       0.33829500    -156.19923276
C        6.05109775       2.75202621       8.63491938    -154.90145998
C        5.51516759      13.03692895       9.72669748    -154.84129966
C        3.09526858       7.53318984       5.75197290    -156.16741626
C       13.11349679       0.32640699       5.85896199    -154.17277906
C       13.54297497      14.03256457      10.24251590    -156.83840018
C       10.95698998       9.24189710      11.54554189    -156.66736688
C        5.80601201       9.56507249       0.78096517    -153.62096316
C        8.25892829       2.32211536      11.36323820    -155.65514022
C        4.58341807       8.36508188      11.63870042    -156.30901821
C        9.77533567      10.22532842      11.52768302    -157.65432509
C        4.43351995       9.85057566       4.36830599    -155.73292840
C        6.94150480       0.68717403      12.67837897    -156.63209599
C        2.56071103       9.49961981      10.94963457    -156.04225134
C        5.21444633      11.68078887      10.25354155    -155.39667006
C        9.52889224      11.35615135      10.31812889    -154.76787484
C        3.71349575       1.04767550      10.47969420    -156.52046217
C       10.22104647       3.51560099      13.29074270    -152.16258895
C        1.77548779      13.49726104       6.85064390    -156.29182718
C        0.36833431       0.54830753       3.89541152    -154.55082937
C       14.29195829       2.63844261       7.78391522    -155.08223967
C       11.68386232       3.02974131      10.37198896    -153.98573498
C       12.80625563       4.49469068       9.28468677    -154.01199880
C       14.64821063      13.54328828      10.84941902    -154.25453737
C        3.94813770       0.94468787       8.71224813    -154.15687695
C        8.92040763       4.91062178       4.04833833    -157.71138402
C       13.75373050       5.02171378      14.52749543    -153.76488509
C        3.39387124      12.21888238      13.20455166    -155.48315047
C        3.56315004       8.24326261      12.38026866    -157.37181295
C       13.48274418       4.56247083       5.28615036    -154.92408540
C        0.50084949       1.49157356       6.18315192    -153.84810601
C       14.54608536       1.50593376      14.01725697    -157.85849570
C        3.20609203       8.07465521      11.09119259    -157.12379044
C        3.35391631      12.29283928       7.54211182    -154.39317457
C        0.80746552      13.51504531      12.62269869    -154.50908350
C        7.78552655      11.77272399       6.41325828    -154.20381547
C        8.79156120       1.88188009       9.71162860    -155.68146619
C        8.00053419       2.65201953       6.17197707    -154.21280688
C        9.22835002       6.06744973       3.55424298    -153.41964706
C        8.32166558       9.00932898      11.72338458    -156.07884789
C        6.30509054       1.74666295       9.60411732    -154.66724698
C        4.43192355      10.14230035       0.25919230    -155.77951415
C        3.90883924       8.48924353       7.17040268    -156.81176074
C        1.83755369      14.09692811       4.51710005    -155.47403658
C        2.07983453      14.01240807       5.65515903    -157.15881367
C        6.37164727       1.21987557       4.80542305    -155.06852360
C        9.54698982       1.92926502      10.94330863    -155.08396269
200
Lattice="14.919689298659158 0.0 0.0 0.0 14.919689298659158 0.0 0.0 0.0 14.919689298659158" Properties=species:S:1:pos:R:3:gap17_energy:R:1 anneal_T=3100 density=1.2 run_id=289 time=2 pbc="T T T"
C        1.77208610       7.76508657      14.16193320    -156.62986225
C       10.12939482       0.15656274      11.80075809    -154.88800726
C        2.37118622      12.14725295       8.09464759    -156.46857041
C        3.88681778       2.89595645       2.55047613    -156.09393897
C        6.01861758       3.02153548      12.15712979    -156.43658276
C        0.18811043      10.74043069      15.05277293    -156.21445453
C       11.95699708       7.64387902       3.62102351    -157.13483799
C        1.01609500       3.99385163      11.97600476    -156.11419154
C       14.76476324      15.01442933       8.22634369    -154.99061456
C        1.29689996      11.69629043      14.93669774    -154.59925543
C       10.05058902       6.66129812      10.33357076    -153.53985241
C       13.26985514      14.26003016      13.34415519    -154.74296375
C        9.93872119       8.74711544       4.51356409    -154.05746967
C        4.60023256       8.45619642       8.88072126    -155.96228409