200
Lattice="11.24866156916609 0.0 0.0 0.0 11.24866156916609 0.0 0.0 0.0 11.24866156916609" Properties=species:S:1:pos:R:3:gap17_energy:R:1 anneal_T=2200 density=2.8 run_id=71 time=0 pbc="T T T"
C        6.26212990       3.31320328       0.58881906    -155.35289544
C        3.37694944       5.22415965       5.55312676    -154.78054096
C        5.91661601       9.25995445      11.08174268    -154.99334482
C        2.47856384       2.24640271       1.03974753    -148.96116959
C        5.81933758       9.46949451       7.29988642    -151.71024166
C        8.83505875       5.65752558       8.13692182    -155.21758368
C        6.70092893       9.35038244       1.62648897    -153.92274771
C        4.43791195      10.68594727       8.09337825    -155.37028239
C        5.31804098       3.96421956      11.23237351    -155.17800893
C        1.01753368       7.14315882       2.39098176    -155.64217971
C        0.50671733       6.61585531       0.22528144    -149.75979662
C        6.29423358       4.25814709       3.24776981    -153.71610952
C        3.45438523       7.35603974       1.45435070    -152.43143444
C        8.26477411       6.46594439      10.37640661    -152.18201628
C        0.43399699       3.43503753       2.79242399    -155.79086927
C        6.62750892       5.51914455       9.58115998    -148.42219940
C        6.54874579       3.03208797       3.58010027    -135.47468070
C        6.34799093       2.00782985       1.04674870    -154.63800483
C       10.57317944       7.93396222      11.07125893    -154.46277577
C        8.88989598       3.59648957       0.77422625    -144.16340203
C       10.14039844       4.25054300       6.03924892    -153.01049190
C        1.66301338      10.03570714       6.37893600    -154.78794619
C        3.92616534       9.15432951       1.97283526    -155.26395028
C        8.69019849       8.03349038       3.21440628    -152.66051130
C        0.34969727       9.22900938       6.03378207    -158.10523092
C        8.09040861       1.53049289       8.82775837    -153.76609986
C        8.37676578       9.22699587       4.71018580    -154.44659866
C        2.50390707       9.45042803       1.37260668    -154.91915875
C        9.61679574      10.10216424       6.19788879    -154.28713402
C        8.83542996      10.90296770       9.84534604    -153.67859032
C        9.49441030       5.06882688      10.51034442    -153.99100287
C       11.11806461       4.53397552       0.29144495    -144.43930243
C        7.50019133       9.86183658      10.56052470    -154.29742965
C        2.91479818       9.91449157       3.00339264    -154.66597960
C        7.44100088       3.50261949       2.39383892    -152.25906614
C        0.22030054       3.06269558       0.83164617    -151.75879521
C        9.70478277       3.11547430       4.58358212    -153.98375014
C        1.34154912       6.52587726       4.05648109    -153.70457554
C        1.94148524       4.65715961       1.15699233    -153.67591558
C        8.03563887       6.96255031       0.92688971    -150.51002925
C        3.96484949       2.70647297      10.03759692    -152.98755858
C        4.51097201       5.00161613       6.63117598    -154.84036951
C        0.91262754       0.90400094       8.42552873    -151.71003531
C        7.31416097       3.35818667       4.36950884    -152.26511486
C        3.80237382       3.80895429      10.13828369    -154.73633286
C        6.38958848       6.57502267      10.14325560    -145.06537236
C        1.48991897      10.83832164       4.25182534    -155.83165752
C        7.29858157      10.97332808       4.19869791    -154.67186321
C        7.84737002       6.23251217       4.82113135    -154.03095439
C       10.43098511       1.39978345       9.47200297    -156.20735598
C        4.35887886       9.15773786       3.19701585    -152.22415192
C        3.59985292       1.09025740       9.00000913    -153.83885603
C        4.33631404       6.97738729       3.43126923    -156.83984138
C        6.62686775       6.15400776       8.78700447    -152.62803263
C        5.81320706       7.38303652       0.54314275    -152.58633730
C        6.75103047      10.22145629       9.56716664    -155.31340024
C       10.75412541       5.93071058       5.31381148    -156.86334241
C        2.77390869       0.79200026       1.22222332    -154.90867572
C        5.30976196       2.90938757       9.02595979    -155.35684559
C       10.94630879       2.32563828       1.46320340    -150.36870800
C        2.99997305       8.26035339       6.91153763    -155.58632066
C        8.05214066       0.82239190       6.74773462    -154.03236002
C        6.67142370      10.44624954       6.29470602    -153.09438605
C       10.40096243       6.97355150       8.18484112    -154.78410438
C        8.99539718       1.83766009       2.23244312    -153.57311169
C        9.81473844       9.05056061      10.12665257    -153.48843458
C        4.35535802       8.25890231      10.99751270    -153.88987724
C        0.34205493      10.63437216      10.47118783    -150.44139466
C        7.35510610      10.48314515       8.31935262    -154.48776711
C       10.03704573       2.87365058      10.59430443    -154.72613718
C        4.32413174       7.39945957       0.58327460    -154.15444902
C        0.11583647       7.94468220       5.68015789    -155.45731955
C        1.87147357       1.58827727       3.59681578    -154.02438753
C        4.70679996       7.77610975       2.26716774    -155.02255337
C       10.48725092       8.40115288       1.81986471    -150.28590777
C       10.49568741       3.05630634       2.15497359    -151.03579866
C        5.51184417       9.61741441       1.24617172    -153.65632673
C        2.16117160       4.10876487       9.20409359    -156.66188379
C        5.66697446       5.43779423       8.94788283    -151.66783246
C        1.48867037      10.58571045       9.12057228    -155.08914775
C        1.42149336       3.23410269      10.48094042    -154.94280968
C        0.40546138      10.18009496       7.38434137    -154.64318814
C        1.48441838       4.47099427       4.86593477    -154.28033675
C        6.48123133       9.06167429       5.18919881    -153.35970936
C        0.19936903      10.19012877       4.92338169    -154.25188325
C        7.86654899       8.48561908       7.91192609    -156.04852481
C        8.26805872       9.42409492       2.68490928    -155.84801442
C        1.06410764       3.27914233       8.72213344    -144.85004811
C        3.35850164       1.33340509       2.90062487    -155.27269865
C        0.51880065      10.28501123       1.34431630    -154.82913991
C        2.38632481       0.21369420       5.83621057    -154.66643928
C        5.92757220       3.32916513       6.64374074    -154.06662926
C        6.21480678       5.59610789       2.52111752    -149.43577734
C        8.28958866       6.32592106       7.19221423    -155.69305622
C        2.96286371       5.30015561      10.11099444    -153.73775908
C        9.63625592       7.33368865       0.68698163    -153.25988834
C        0.60084501       5.39814270       0.76279986    -140.39921312
C        4.54970115       0.36580872       3.45358657    -153.86186400
C        1.97925825       0.05650855      10.59114355    -154.25783543
C        1.03415583      10.37626037       0.03347230    -155.71647310
C        6.54267152       2.03061964       3.78235120    -147.12058100
C        6.84663285       8.47701386       6.52141154    -149.01609708
C        1.45120108       8.07449175       1.59160687    -152.68746471
C        3.00731842      10.46308879       0.42397780    -154.36208295
C        4.32170203       7.48694041       4.72038834    -155.85182564
C        4.32986856      11.23113615       6.64068110    -154.43178278
C        0.84228965       8.08284951       3.11337080    -153.66567581
C        1.09008979       5.93695359       9.86442377    -153.84692079
C        4.97519302       6.35573001       4.95884872    -153.38016361
C        7.30810919       6.97243788      10.76376551    -153.52093392
C        9.54560296       2.11379224       8.99891801    -154.57219638
C        4.73105207       9.33568044       8.64691364    -154.68123486
C        4.51820490       4.03834824       8.41632733    -154.77853522
C        1.00622877       7.60115932       7.93100382    -152.21710442
C        1.85902130       9.61662701       3.25240426    -154.72877352
C        9.30451040      10.13405419       2.96605833    -154.13537636
C        1.08168592       8.42182792      10.80063863    -154.06946065
C        9.98009376       5.65624324       7.41813235    -155.42940990
C        4.00297120       9.47844845       6.45332340    -154.94034603
C        8.92113351       3.93592918       0.06297451    -145.41376297
C        6.86787032       2.88710398       5.91445626    -156.19325583
C        9.68266790       6.45342463       9.40786310    -155.08759534
C        2.03533282       9.76667290      10.08232160    -155.03626538
C        6.00453555       8.26225441       4.77365075    -151.88075609
C        3.61737833       6.81041216       6.03141985    -156.73962375
C        9.04915453       0.56544884       5.60055111    -155.70600632
C        1.26556442       2.31129624       4.06292657    -153.93103592
C        6.93843318       6.35722608       7.63532151    -154.12309562
C       10.56766760       4.05095799       8.90232575    -154.28635814
C        1.14317898       0.53723270       7.37167538    -152.77397706
C        1.66214723       9.10182076       8.72962505    -154.63813210
C        2.18408512       2.69414444       0.32158461    -151.13621822
C        8.06153329      10.50144673      11.14146182    -153.17398024
C        0.16380188       4.46177036       1.09382098    -145.77401247
C        7.94179129      10.32338041       0.94564236    -152.53046758
C        4.60756427       4.60066884       2.34660579    -154.82954615
C        5.76583895       2.14003537       1.87365581    -152.54644065
C        6.04194859       8.55834168       6.93506983    -147.03949946
C        4.24050919       6.94152656       7.17386766    -155.29124708
C        7.61796482       0.68774204       3.41401378    -156.19505534
C       10.06152282       1.25652049       3.77382472    -152.92152645
C        7.16924446       6.31684339       1.24882641    -155.02834428
C        4.08645877       5.06990675       0.09472363    -152.49013450
C        8.72523807       2.26399562      11.05864918    -153.24673976
C        8.86447400       7.14179773       2.76888054    -151.84489218
C       10.19025250      11.00173095       1.61598272    -153.98354506
C        9.33868383       4.87403381       5.10428266    -155.70749288
C        8.76689186       3.50499296       7.50835786    -153.43445694
C       11.09831196       8.66520396       2.85284055    -151.76536131
C        5.32835600       9.40121514       2.32591950    -154.26555447
C        4.79646304      10.39701415      10.64572206    -153.55637028
C        5.90979932       6.15098187      10.63048012    -143.77595950
C        8.67470908       7.75325247       8.93107733    -154.77491808
C        3.55965020       6.04445705       2.62034197    -155.08507070
C        2.19662738       2.77244637       6.56128805    -154.97214332
C        3.17652079       8.19082541       0.72703812    -153.75107950
C        2.99349382       3.94879765       0.90366235    -154.21178577
C        0.15327764       2.35088028       3.50175334    -154.85684707
C        3.11125605       1.42865876       4.48891338    -154.48311529
C       10.96018964       1.63297945      10.86485724    -154.04494081
C       10.10859847       6.71647458       6.28932916    -154.88096337
C        7.91405209       6.89332604       1.91979782    -153.40767206
C       11.01038117       6.73682341       0.83943137    -150.08714184
C        0.84272835       0.83367880       1.22045728    -154.28212272
C        8.64933210       3.86094560       5.14539652    -154.04115401
C        0.68656318       3.45977334       5.29458752    -156.61794025
C        3.61511735       5.03427099       1.01218944    -153.42758694
C        6.41674275       5.47067407       0.82830082    -153.24691924
C        6.01462560       1.30387736       8.77773557    -153.52691299
C        5.56023591       7.52925788       6.81103083    -153.60147597
C        2.30180237       5.48616347       9.16526321    -155.80101754
C        1.67493696       4.15083486       2.62163556    -154.51957767
C        2.27055359       1.00728502      10.83545324    -151.52147702
C        2.02989972       7.62871854       8.04569518    -154.37568864
C       10.58340448       5.00458578       4.01849436    -153.40423240
C        6.02993502       8.99117893       3.06789246    -151.66672436
C        1.36783725       8.17829440       5.35420543    -153.88908166
C        0.30347764       2.82901589       6.35666365    -154.46142738
C        0.97935460       6.02795526       5.49477995    -155.59303321
C       11.12745724       7.67627788       1.47367590    -154.57752486
C        3.95021498       5.51237286       8.62447256    -154.43010052
C        3.29559912       3.86378027       6.91791562    -155.45611855
C        5.28697218       1.26724047       3.27572274    -155.10760237
C        7.81384901       7.27845772       5.12062697    -154.22575671
C        3.74059617       2.03289186       7.17759097    -153.68066140
C        3.46795111       9.00092027       9.90089193    -154.95025822
C        9.51311682       2.11738056       4.27672988    -153.24826287
C        8.59303255       5.19507061       6.04975517    -153.86413234
C        1.16774605       4.99952388       0.49750243    -137.90051935
C        0.90581647       3.39318126       7.99882200    -142.85799493
C        6.18199443       2.70388578       3.14342723    -135.12660395
C        3.59713074       7.49184483      10.58203214    -151.05351764
C        9.76742657       3.29905246       1.40438415    -152.59213200
C        2.48452563      10.31041071       8.41483125    -152.69476562
C        7.15683719       0.82511407       1.34733094    -154.37689886
C        1.80415033       5.99368059       2.12613202    -153.93213764
C        8.79810690       8.32733917       7.20134814    -152.93660788
C       10.33832989       0.75726552       8.32654051    -150.55703395
C        6.79113195       6.24909270       2.67848630    -147.96810122
C       11.23933643       1.31980546       8.64082811    -152.38198012
200
Lattice="11.24866156916609 0.0 0.0 0.0 11.24866156916609 0.0 0.0 0.0 11.24866156916609" Properties=species:S:1:pos:R:3:gap17_energy:R:1 anneal_T=2200 density=2.8 run_id=71 time=1 pbc="T T T"
C        2.88443804       7.72589573       5.93735854    -155.53367878
C        4.71991590       3.84076550       8.12260228    -157.49680301
C        3.52044862       3.14627314      11.21453313    -156.56256238
C        4.68263783       4.05852834      10.62241483    -155.56266506
C        7.66661528       4.81185121       9.37683929    -155.18415549
C       -0.01384497       3.63927948       1.04503328    -154.60028180
C        2.48824893       1.25582307       1.79417277    -155.58599012
C        8.67422539       5.65047267       7.09306853    -156.58518094
C        7.47077608       9.03741093       3.29528416    -156.10084707
C        5.43138249       9.95777642       1.87285716    -157.25936526
C        8.37901552      10.26934184       8.43850969    -156.61805562
C        3.44806348       7.85906863       2.38022804    -155.33060091
C        6.40052218       3.71956118      10.40554064    -154.90448626
C        9.03319268       2.52288356      10.39308837    -155.28357042
C       11.72999180       7.77171153       4.50672001    -156.61651760
C        1.59471150       5.02043514       6.06321981    -154.47002020
C        8.17342373       1.69850290       5.64624318    -156.03812751
C        0.00794778       2.85502279       6.16469399    -156.38072692
C        3.40770328      10.62214487       3.24548633    -154.89277597
C        3.71330692       3.12333712       8.14949783    -155.74054995
C        0.24132204       5.88292627       1.31897306    -154.63652688
C        8.48305439       6.30495355       5.76913480    -155.02623104
C        7.86787633       2.92426955       2.47534672    -155.45539268
C        4.53526912       8.65447274       6.44381828    -155.52801139
C        0.51419882       0.89442045      10.99521798    -154.31817740
C        0.74195947       6.31233267       4.72660885    -156.67260282
C        7.87297198       6.27212996      11.28252004    -154.98744538
C        5.47142773       7.85501911      10.19769912    -158.45951557
C        6.41773263       8.76259488      10.26298635    -156.92783012
C        7.88956375       5.83705422       4.68876835    -158.16098125
C       11.07718697       2.94306607       8.82655477    -155.18251787
C        2.15528855       4.72068081       9.64496239    -155.30759132
C        5.51881834       4.62404355       8.78500221    -155.42930728
C        3.76700803       6.05139747       7.22274310    -157.39125789
C        4.43150021      11.06895295       2.11870790    -157.13786059
C        7.53525341       2.91614802       5.81293709    -157.00180774
C        6.21144343       5.83246477       3.19478862    -155.29484341
C        8.75152619       1.23911881       2.01911225    -156.37410533
C        3.50445302       1.23587920       2.66277192    -155.98181228
C        0.46383631       1.95956184       3.27178570    -155.94476013
C        7.34825566      11.12713103       6.19545908    -154.48330235
C        5.97311803       2.86225568       6.26007139    -156.76185500
C       10.44736316      10.22929661       2.68488679    -157.10842021
C        7.43524156       5.12738741      10.80984003    -157.17508402
C       10.37294202      10.08507752       4.88621611    -156.48318932
C        1.32008668       9.64332008       4.20414227    -157.19673539
C        4.03348882       0.10384989       5.45118014    -155.02636324
C        6.91165011       4.83856678       4.42833934    -155.60258507
C       10.13363799       2.02750376       5.97924855    -154.76661826
C        9.00126898       1.07864766      10.22299736    -155.59496224
C        4.85593471       9.54265581       7.60638995    -156.33966904
C        7.37974067       5.62002255       7.45336316    -155.60460954
C        4.80738549      10.18108485      10.55251565    -154.85548560
C        0.97869992       3.35203366       8.24268174    -157.14037700
C        2.77657463       0.19278406       5.74708743    -157.63377780
C        9.41041654       7.73672819       9.88407519    -155.53494134
C        6.77553006       2.34891176       2.62785607    -156.57806843
C        5.06387747       1.58219174       6.26760799    -155.61251130
C        6.58740744       6.95112167      10.05981303    -153.72777619
C        0.77749399       6.05739301       2.73501082    -155.84548898
C        9.63516480       8.39384125       7.28341838    -155.05457954
C       10.23033149       2.72387465       3.62239524    -155.30109981
C        1.49499212       2.51251230      10.84255114    -154.98923351
C        6.94189776       2.71373960       1.30916423    -156.58438836
C        5.68243012       7.28616305       6.99124564    -155.49397783
C        1.13623855       5.14741003      -0.00286317    -154.77444181
C        1.74629847       8.06371553       0.57303269    -154.36077644
C        1.51014406       5.55192315       3.71622032    -156.83489259
C       10.49368515       0.07276073       7.20510519    -157.24884736
C        0.38536115       8.99463227       4.89420266    -157.03114272
C        4.60460587       7.83631259       9.15447575    -155.58442450
C        9.08791742       5.26530725       3.97477081    -154.58343988
C        9.93099335       5.21458704      10.88491360    -156.75288369
C        5.66847053      10.34920734       0.50819091    -156.29818328
C        6.93003042       9.71504155       8.16818185    -157.79852778
C        6.60635019       1.68261979       0.54301114    -154.29125132
C        3.14256108       1.28089634       0.45267314    -155.79687258
C        6.81424795       2.89114225       4.66758712    -155.29566384
C        5.15607150       4.48902587       3.04358411    -157.32743214
C        2.51139868       2.95981532      10.08790093    -156.83812994
C        7.53210379       2.09951769      10.96025714    -155.74662467
C        9.12547670       4.16671797       6.46555069    -157.34898547
C        2.90916260       8.24054449      10.57898375    -155.55900785
C        6.97505882       7.72324104       2.67760890    -156.32453499
C        8.83449632       8.48242446       3.92352191    -155.98657170
C        6.26060008       1.13090669       8.87107697    -154.75890882
C        1.95155279       7.62123818       9.60461344    -156.11677900
C        2.46647152       4.40760806       3.97766171    -155.72329055
C        9.55038364      10.17870013       7.42374543    -157.21150860
C       10.82288848       3.99887669       2.74204124    -154.24563560
C       10.65729693       1.85721027       9.29255307    -156.70284195
C        4.67426883       7.43727757       2.94845418    -156.15425290
C        8.79243757       7.03115589       2.93584443    -155.29273488
C        7.16255151       7.60865093       6.36190552    -155.31177669
C        3.01294275       8.42123174       9.37805414    -156.39747053
C        8.73122236       4.50413282       0.13978037    -156.00752008
C        3.15764554      -0.36568836       9.40985411    -154.75820303
C       11.15596135       9.48324038       9.83821439    -156.08784496
C        9.83247757       9.08890730       1.94784073    -155.90790992
C       11.00650038       7.86059845       3.27426041    -154.89870981
C        2.05426432       9.47164301       8.98485718    -155.21029052
C       10.28036553       1.11573112       1.44844516    -156.55918678
C       10.97252942       4.43440237       8.63063683    -157.10505937
C        7.66202583       4.08789860       7.01474410    -156.03874251
C        5.55859361       9.16428458       2.86419045    -155.33582219
C        3.10137973       8.97441842       6.20188206    -155.94524201
C        0.02417011       7.84752751       7.73580580    -155.41479044
C        6.98426022      10.82232605       4.91934342    -157.06903019
C        5.61134983       1.44274208       7.46215961    -155.51839589
C        7.24050473       8.04797865       0.28249889    -154.87458777
C        0.85451470      10.05966679       3.00328015    -156.48200901
C        6.60002844       9.39084387       0.22788326    -156.16868068
C        6.44369454       9.88414268       9.44232900    -154.87128302
C        8.40262646       4.16014875       2.31697681    -155.58340104
C        0.77751761       6.23333332       7.27753533    -155.25306802
C       -0.17037335       4.61588827      10.15952116    -156.42143491
C       10.20564067      11.16582643       4.10716756    -155.81885534
C        3.40494736       5.90100286      11.06283368    -156.31700444
C        5.45867175       8.89405798       4.42217507    -155.53830745
C        7.49730043       8.18993676       7.89042990    -156.59507285
C        2.88664278       4.32253443       5.34378917    -156.58144186
C        8.39583227       7.44472418       8.42523627    -155.12371362
C        8.61092917       8.91304572       0.80650316    -156.10057790
C        1.07215493       2.64729376       6.86130110    -156.98520689
C        9.60783055       3.77904410       3.76316099    -156.76445606
C        6.93176272       9.41541095       4.78579931    -156.89891353
C        0.96392256       7.63625514       2.32746057    -155.99223858
C        9.43616473       6.34353646       1.98442138    -156.33150865
C       10.72088562       2.43511026       1.60526275    -156.50693074
C        0.87892430       7.27503812      10.16479678    -154.81654396
C        9.61035025       4.26717977       4.99635176    -155.63005123
C        1.50375482       2.44057711       3.03873593    -154.11751864
C        3.36765805       2.61980203       6.56137804    -154.46278038
C        5.95858476       6.87663303       1.97877455    -155.25707293
C        9.76312958       7.38700730       0.61739404    -154.35576508
C        5.15838873       3.10584545       2.85774497    -155.80298605
C        0.56665470       1.96479247       5.08672350    -155.71299149
C       10.77954739      -0.17913381       1.63569038    -157.52164782
C        2.27344449       3.68756998       8.63572122    -157.34500128
C        1.89308225       6.56937584      10.89843449    -156.32001308
C       10.51117682       5.84200363       5.53539887    -154.36555857
C        9.19226000       6.50837435      10.38738530    -156.80167207
C        1.91581580       1.50962663       5.21617310    -156.22022928
C        5.66322866       4.46926197       4.18809043    -154.71984320
C        2.41480642       7.29231607       2.49063365    -155.03757372
C        7.55171020       7.05464310       3.84607487    -156.42005898
C        4.46876703       6.51248011       8.29513425    -155.32397359
C        3.88816736       5.98513160       1.37307912    -156.00810878
C        1.21780260       8.94683670       7.72987775    -156.30904811
C        4.82833050       6.80126700       0.39379764    -155.74458095
C        0.42758300      11.08949301       6.62414557    -154.58552759
C        3.91286942       4.79917397       1.90635567    -156.36520000
C        5.07443996       0.77420263       9.34636667    -156.26250345
C        3.19664464       3.04020951       1.34645354    -155.92820671
C        4.03750459       7.53553463       4.57084863    -155.08283462
C        4.60404343       6.31097158       6.24838403    -155.77508013
C        7.66139590       2.96722819       8.38615842    -154.92381109
C        4.84710451       4.04019302       6.56255915    -154.82799853
C        2.50308592       6.52553980       6.93850067    -156.15653579
C        7.93545829      10.29624864       1.11900223    -155.47651611
C        1.05034602       9.12165215       1.83149583    -154.91592566
C       10.70971570       7.97852942       1.77890834    -156.32661016
C        2.67986988       2.81763224       5.66030400    -156.09311470
C        8.49048975      11.43673919       9.25251908    -155.75323027
C        3.79326241       1.09518769      10.60302214    -154.58933957
C        2.21015952       1.64386815       6.62860004    -155.67565346
C       10.07190534       0.77757723       8.29988118    -155.89565898
C        4.66218777       0.86748891       1.54276518    -154.10085872
C        1.85985370      10.53818486       6.17203937    -155.45397277
C        8.69659898       2.74129882       9.25654610    -155.30441006
C        9.49906725       1.34253901       3.68735626    -155.96655722
C       11.17772751       5.72183418       6.50675454    -157.03894269
C        8.64672241       5.31168548       1.83154082    -156.30411250
C        9.80820296       9.98292842       6.09362495    -155.58560593
C        6.61144583       5.69453368       8.40568609    -155.60248539
C        8.72944507       8.67836490       5.32657871    -154.94895768
C        0.77760648       9.93737134      10.85006525    -155.11786193
C        9.99167988       5.07673469       7.40817728    -156.27534148
C        9.54786394       2.73875663       7.01449662    -155.71685959
C        3.68670383       4.90414648      10.27508991    -156.76624631
C        3.60633215       2.74813801       2.63369413    -156.68434929
C       10.63445090       7.87380438      10.31686744    -156.31462920
C        2.67695648       9.86460375       4.13185837    -156.35001206
C        8.60636222       1.65134851       7.10808549    -154.62643124
C       11.38353302       5.69096786       8.90906370    -153.96631582
C        6.45064621      10.77910869       2.57900314    -154.30359637
C        0.65977900      10.95714126       0.82352464    -158.10284805
C        0.71965675       1.45855770       9.97412072    -156.54229185
C        1.80976341      -0.41132868       1.67673674    -154.97634041
C        4.52674263       8.04223059      -0.01573395    -155.24796931
C        3.66916717       5.88174516       4.80599066    -154.58319616
C        6.65876895       1.64723150       3.77893161    -155.17845241
C        8.10949759       0.64320522       4.14870886    -155.13920211
C        1.18379789       9.22771578       6.30685457    -155.89349863
C        5.98042966      10.30406646       7.21518400    -155.36314746
C       10.02777684      10.70485627       9.30525281    -155.14699116
C        4.09591889      10.02584207       5.12363036    -155.92637438
C        3.02104179       3.92771766       2.42603259    -155.69121336
C        4.40147754      10.52643000       8.89473290    -156.56103068
C        7.96072279      11.28263253       2.35580719    -156.73357825
200
Lattice="11.24866156916609 0.0 0.0 0.0 11.24866156916609 0.0 0.0 0.0 11.24866156916609" Properties=species:S:1:pos:R:3:gap17_energy:R:1 anneal_T=2200 density=2.8 run_id=71 time=2 pbc="T T T"
C        6.22833892       9.36740166       1.85337447    -155.30783131
C        5.04832057       3.76424086       4.37432327    -156.07094307
C        8.80874813       1.99263291      10.60819653    -155.30433622
C        9.22565728       7.51794172       9.37072002    -155.68662712
C        0.57177172       0.36235426       4.94603649    -156.95951803
C       10.61917522      10.44570961       8.61233525    -157.93165092
C        0.24884289       2.77036537       1.38456401    -156.93829792
C        6.94983932       9.47962956       8.18682088    -154.37868719
C        3.89727878       8.72692537       0.95287975    -154.85290048
C        3.30581291       9.17202366       9.00245009    -155.24186713
C        5.93928206       1.40134701      10.98265322    -155.30997010
C        1.31762322       5.44006646       7.13477856    -153.93968078
C        6.86150358       7.79632360      10.75234812    -157.73338506
C       10.73809607       2.99793704      10.51411272    -156.75571051