200
Lattice="12.58375331064208 0.0 0.0 0.0 12.58375331064208 0.0 0.0 0.0 12.58375331064208" Properties=species:S:1:pos:R:3:gap17_energy:R:1 anneal_T=3100 density=2.0 run_id=297 time=0 pbc="T T T"
C        8.42751576       0.09534647       9.18951236    -140.68822351
C        5.84744366       6.26623097       9.54476430    -153.89307207
C       11.33299115       6.94676035       1.73269474    -152.58973351
C        4.64580847       7.84150296      12.41201025    -156.34965305
C        1.86560435       8.32129630       0.00541265    -155.59228925
C        4.72260711       2.83669259       9.20950795    -154.25122905
C        2.00591320       3.73070534       7.60687888    -153.51430635
C        2.97240837       7.55283166       6.88360249    -154.51907242
C       11.87073268       6.94696169       6.54720101    -157.11725155
C        9.16765438       3.33514764       9.81556667    -156.25632063
C        3.83136279       3.93179372       7.32371926    -155.55463664
C        9.78507624       9.18832949       9.60715455    -153.31810586
C        2.43545962       8.89101315       8.96223719    -153.85162281
C        0.25206265       5.35983580       1.85778984    -153.49501152
C       10.30917698       6.56546004       6.47844338    -153.03759120
C       11.14058556       5.34255831       6.10383763    -157.61034765
C        2.01351378       5.01736895       0.92296294    -152.14982741
C        6.02099878      10.87927134       4.91527696    -155.70284943
C       11.98669197      11.84521283      11.75234473    -153.64515066
C       11.50491039       9.73285366       9.85319210    -153.57869823
C        4.66591731      12.32384847       1.92053243    -152.36797508
C        4.94361557       1.29778765      11.00079265    -152.18633575
C        7.03828198       6.21516610      11.18192319    -153.93833901
C        1.00315416       6.20585412      11.85863969    -151.16967052
C        4.23362763       4.90760087       5.84292609    -156.28933596
C        6.26951533       9.51613626       1.05722403    -152.79220801
C        6.91282196       1.38471621       8.95298814    -154.99341851
C        3.64031624       6.30476242       6.32994251    -155.37266770
C        0.50617267       6.57759077       5.64201388    -153.79058417
C        1.96077527       4.22763776      10.69658041    -153.75220229
C        9.59477214       7.61697105       8.39012943    -148.29388009
C        4.92976086       8.20297127      10.26642997    -156.84715370
C       10.46089929       4.61460076       9.05991229    -156.29957627
C        0.49216066       3.67473281      10.59954709    -156.55037579
C        7.14922035       8.34653931       4.80389816    -155.28084635
C        9.06766388       7.23305332       2.26546569    -152.71183202
C        9.21066565       7.93757991       9.25465845    -132.85651146
C        8.56183475      10.11074378       0.71151561    -154.71094399
C        7.96126254      11.47413053      11.10234354    -140.26127773
C        1.72829043       5.26591066       3.96821110    -152.44983064
C        2.79459994      12.04686748      12.38260201    -154.93395376
C       10.05528717       2.57929192       9.18669360    -151.70972109
C       11.21654110       4.79166675       3.21599208    -154.76563875
C       11.23157868       1.12652780       0.53480448    -157.22044067
C        5.10135292       4.76391958       8.00335519    -153.72459503
C        0.08288490       2.28091854       7.73421388    -153.54914794
C       10.68418541      10.40477575      10.24094787    -153.06079366
C        4.33423474       2.11133988       7.09855816    -156.70917202
C        3.62224597      10.93407359       3.71521474    -156.23851196
C        0.90670850       7.95387587       7.10200611    -151.30663203
C        3.45514631       9.69361752       2.43928508    -153.57045220
C       10.39068195       7.67756182       4.39561829    -153.16738367
C        6.82044463       1.86877545      11.20059748    -153.24357721
C       10.70764153       0.02458979      12.10233666    -156.72193228
C       10.62982360      10.96121674       5.71043175    -154.41239959
C        0.18693921      12.15419431       2.43691933    -153.77750744
C        9.27008614       9.08007146       4.77297988    -154.66388647
C        5.79381170      11.98962398       0.96430686    -151.62212414
C        5.63559617      10.11746350       0.34763625    -153.70213829
C       11.96657055       2.39692816       6.71452718    -155.44143642
C        8.60114639      11.03361108       7.46709854    -153.17527694
C        2.51776995      12.15501225       9.93832119    -154.41241328
C        3.82595177       2.07859696       0.20569151    -154.96816081
C        9.89890887       2.83214986       4.38957808    -153.33624104
C        2.04780451       8.63451851      10.42818154    -155.74202718
C       12.22008284       9.57482689      12.22589653    -153.22953506
C        3.66023633       6.36564262       1.84354503    -156.82782082
C        6.56252802      11.13829532       7.71248173    -157.73565785
C       10.20610346       2.81053097      10.16486650    -153.86578394
C        1.23242134       6.91548972       6.61048471    -157.42019688
C        8.84353465      11.23824807      10.16854095    -147.30707833
C        6.20419306       9.22922669      10.87915809    -150.56100131
C        0.65793525      10.97168643       0.90735531    -154.35465116
C        5.94859187       9.81405662      11.67261407    -155.40696313
C        4.80082773       5.75989848       2.85069831    -152.89278195
C        1.11528421       3.04666510      12.32276627    -154.20018732
C       10.52253452       4.17633380       6.02578061    -154.41823155
C        8.35734876      10.85733786       3.11686986    -155.92218875
C       11.28279456       9.22878626       8.95618441    -150.96751009
C        7.59656020       5.87116403       8.57110897    -153.38945772
C        5.13419652       8.58074813       9.12708436    -155.95477281
C        3.49004106       0.78222750       6.27254801    -154.34231402
C        6.68526995       4.48359130       6.34266468    -154.24025582
C       12.06730349       0.47497377       8.71642616    -153.93509941
C        0.85324769       6.56241477       7.96963073    -155.97723119
C        1.01034326       5.68999573       0.15234269    -153.01381181
C        6.50754960       3.68072268       9.21210020    -153.88171300
C        0.24498177      10.99820039       9.89442906    -155.60040894
C        1.11929717       5.09314831       6.17928981    -154.95064702
C        1.55715139       4.35079496       3.35552074    -153.59735096
C        4.26187816       0.51442384      10.80397016    -153.45887218
C        2.90717419       6.43549503       3.13343008    -154.20694775
C        1.79244241      11.46995272       7.68912629    -152.51708391
C        9.13600624       1.98415589       0.51896154    -153.81861137
C       11.95621412       9.73981248       1.86408171    -152.84917212
C        2.27621222       8.56993868       1.24711916    -154.68627395
C        6.69078164      11.05821231       9.10474820    -153.92606774
C        9.07313781       0.16393359       1.62804825    -154.35865328
C       11.15428927       1.12682981       7.94948414    -155.51381539
C        0.29719554       7.49796649      12.14547377    -154.28917292
C        9.29408335       0.05124494      10.23263001    -150.57576585
C       11.03997845       3.48668120       2.43576163    -153.82078554
C        8.73964318      11.86319501      11.38956771    -140.46158918
C        8.24315119      12.42957717      10.66644232    -110.85949850
C       12.07861629       3.92663438       0.61593068    -152.23409824
C        9.82698014       2.67475227       7.41166711    -155.52428518
C        6.85961785       7.50365435       6.22530860    -154.43511529
C        3.82220181       8.19308044       3.97966232    -154.26020933
C        0.36390453       4.14169073       3.10580874    -155.41408714
C        3.45480655       1.95327536       5.19332758    -154.71858793
C        3.55199088       4.56604006       2.20477425    -152.48144083
C        5.54623894       7.20231121       4.44298353    -153.35493894
C       10.58346505       7.88964840       0.08087440    -152.73451425
C        4.49382190      12.49828446       8.78720977    -153.61353877
C        1.16729790       3.74818418       4.24856454    -152.19550226
C        1.68895362       7.17119159       9.18644193    -153.96253871
C       12.47184599       0.83845422       6.90154692    -156.45369550
C       11.54589567       2.87907467      10.66532237    -155.60731619
C        6.40515560       6.86114049      11.83434047    -155.59170233
C       12.41715700       4.62538504      10.63992835    -152.35843066
C        5.38252431       4.33764493       5.78751982    -156.15760352
C        7.62571675       0.87254487       5.76768783    -155.43632965
C        4.31757385       4.89786105      11.52729689    -154.34788936
C        0.64088426       4.77174667       0.56998236    -156.74943300
C        6.39211883       8.38276794       8.45377806    -152.29156722
C        3.94556035      12.09948015      11.64555900    -154.33635289
C        8.28554586       1.93385863      12.28056036    -155.95807124
C        3.59921771       4.90924934      10.02750225    -154.34632899
C        8.11439423       3.12531356       3.39567550    -152.39084114
C        8.27547886       2.45261127       7.22231938    -155.95028328
C        2.53735027       1.28656294       4.01022826    -152.25296176
C        4.65305671       9.44864959       7.34658394    -153.89177273
C        6.00564660       2.49411249       0.74988096    -154.39775248
C        8.06258692       9.41340250       1.61858527    -154.17368479
C       12.07265159       1.14680400      10.68567030    -154.59406879
C       12.01184689       5.83699914       7.34586667    -154.55082118
C        9.44198021       5.44588350       8.34068787    -154.83993711
C       10.60712251       0.89446451       3.09707561    -153.97447798
C        8.22164556       4.34472959       9.90611936    -153.93792223
C        9.09050339      10.45167540       4.58564554    -156.29770225
C        6.71486694       1.19431018       4.64885374    -154.64341280
C        1.16216750      12.09763034      10.09809710    -156.45864381
C        8.68003394       8.36744093       7.06129767    -153.53949986
C        1.41542057       0.18899665      11.94164213    -154.19518070
C        5.99198065       3.74185455      11.98683039    -154.31760928
C        3.85771317       2.88928010       8.05408030    -157.27084742
C       10.29590112       5.10637384      10.39477167    -154.11513250
C        7.01958253      10.89798338       0.91572854    -154.72563410
C        8.08097178       3.01944644       5.94954823    -153.96232205
C        4.19678240       7.50724072       2.04243125    -152.59750461
C        4.02128938       6.59025003      12.49377947    -154.49966649
C        4.67312780       4.75568980       2.45516577    -156.76392853
C        1.20268467       3.06882509       1.10281623    -153.88228938
C        8.31652706      12.39409098       2.51563071    -155.43103778
C        5.68455955       2.14668764       8.38198775    -157.07819870
C       10.54066771       0.57438416       6.36963167    -153.00486031
C        5.55105851      12.38563470       7.70655479    -157.05702872
C        4.70321555       0.20021632      12.00892746    -153.15583137
C        6.07486983       0.22587082       0.54583037    -150.21335519
C       11.47073291       9.69883978       5.41991064    -155.05784618
C       10.91534896       3.81549467       7.09907410    -155.44039628
C        0.11231541       8.54610506       3.92357653    -152.17086682
C       12.30352571       1.89711407       0.36801187    -154.25345373
C        7.93054560      11.25073115       0.50125494    -153.06558456
C        2.83849207      11.63053400       3.10080040    -154.54183731
C        7.42641527       1.00352035       0.36137016    -154.76255794
C       10.45610488       1.31652486      11.67944705    -153.95078710
C        2.49946059       4.82620916       6.08554085    -155.04600339
C       10.25346871      11.10560273       0.05664350    -153.23763707
C        4.26971783       9.85002099       4.78961560    -154.69633860
C       11.80520908      10.79785446       4.09178356    -152.56995633
C        6.87683243       0.02523181       1.50815025    -155.13135121
C        9.77990432       6.74204785       9.42568424    -153.79679074
C        5.51542132       1.23371243       6.76847373    -154.72196794
C        0.67335538       0.35731568       1.89221899    -153.41467839
C        1.20827312       9.93336319      10.79692326    -155.00728831
C        5.56617160      11.91288825       4.66936525    -153.14126347
C        4.96023871      10.58937942      10.80385691    -153.29395449
C        9.38289948       9.82421171       2.89217436    -154.79142051
C       11.43704621       0.65108843       2.14365496    -157.27994021
C        9.64184796      11.73044900       2.34752435    -155.00155000
C        5.93992166      10.42036703       3.36431678    -152.62376619
C        0.18327230      11.74137170       6.85528904    -153.59974622
C        3.07224787       2.86320656       0.48406050    -155.12421991
C        1.83643521      11.41910177       1.78695589    -155.30335844
C        8.01134588       0.19522812      10.82299680    -113.21660994
C        8.64943025       9.12273038      11.05043555    -153.59392191
C        9.37119659       8.47104297       8.98585690    -132.13990155
C        6.83106532       1.33709929       1.90908121    -152.00995556
C        5.51589951       8.69274353       5.95663288    -154.82992985
C        5.17201070       3.49932787       2.50258136    -151.69703767
C        5.85296792       8.73177834      12.50921974    -156.42653747
C        6.14064511       0.39444656      10.32743601    -154.24434032
C        3.84671497       7.94979874      11.08548131    -155.46325497
C        7.60838893       6.86578389       4.04948957    -152.83398733
C        0.31886979       2.38309862      10.70786804    -155.42062859
C        9.65873536      11.46473046      10.73822005    -148.30637961
C       12.09940465       4.37635256      12.19818711    -153.74878005
C        9.01753021       0.16952958       8.81275479    -135.95456050
C        7.02182243      11.66953105       6.55944500    -154.62328904
200
Lattice="12.58375331064208 0.0 0.0 0.0 12.58375331064208 0.0 0.0 0.0 12.58375331064208" Properties=species:S:1:pos:R:3:gap17_energy:R:1 anneal_T=3100 density=2.0 run_id=297 time=1 pbc="T T T"
C       10.07266534       3.40596901       0.56540188    -156.70718520
C        7.41702779       1.04512476       2.75784279    -154.97235021
C        8.18579445       9.58485614       1.46081017    -157.23468769
C        1.61757857       6.50153457       0.84918187    -157.45437282
C        5.83720048       6.29064345       2.36487734    -154.84476285
C        1.00936425       0.81260845      11.02865308    -158.20288278
C        5.51262773      10.92724061       1.04235759    -156.34975869
C        3.36065491       8.20536218       9.19979329    -154.73062779
C        1.87119153      10.88109599      10.69856864    -156.93816705
C        5.21450603       2.44775394       7.22643426    -156.75726770
C        4.01360070       2.22741242       0.14735827    -155.68881014
C        2.21306694       9.53732730       6.39773119    -155.84095670
C        3.89862295       5.85740999       4.71608873    -155.65104249
C        5.82936080       8.36779327       6.32322278    -156.55953760
C        4.66676042       6.01931256       3.36263056    -156.52942993
C        1.02454906       0.72961357       4.23952941    -154.54259967
C        2.35711317       9.97169330       4.68777529    -156.04321450
C        8.74331764       2.98056264       2.53394007    -155.54626394
C        0.04149027       8.30872513       8.92639866    -156.87520034
C        6.98676410       0.07645360       1.95934073    -156.85822868
C        8.70817121      11.73943380      10.99804939    -155.81384006
C        9.71085726       3.37489972       4.15924506    -156.88431895
C        4.12603654       1.95492383       2.67033537    -154.55546472
C        1.98293526       5.14924669       6.52876581    -156.31105766
C        1.48911103       7.55895994       2.10102120    -156.52388200
C        9.15221412       1.22819320       9.23243555    -155.34336530
C        1.40780740       1.30199062       0.92221672    -156.91028142
C        7.48485422       4.81869666       4.84225344    -157.25524486
C        1.51237839       9.61354710      11.77001232    -152.93509800
C        6.64541720       4.93919868      12.68970851    -154.04311222
C        7.70932321       6.22571128       2.48496410    -155.37768265
C        1.32578650       6.42779377       7.34365192    -155.25409200
C        0.31272766      11.81246990       1.88314610    -154.39422498
C        3.26489255       5.58636853       9.07228212    -152.74764604
C       10.88601623      11.09538472       8.44910949    -154.97400443
C        2.61138049       1.12141754       2.27904356    -155.27788746
C        9.97043493      11.86250291       2.21236225    -155.73922604
C        7.67507024       9.65874794       2.84260695    -156.46447802
C       12.15327569       1.12796612       8.95259804    -156.38512121
C        3.84364453       2.17155314       7.23432428    -155.08644536
C        4.84188851      -0.11766237       5.83676005    -156.87132072
C        9.64475481       2.57746727       7.34999414    -154.86964180
C        5.72637537       0.99077804      10.39284636    -153.79448101
C       11.43538515       6.13013767       9.54458813    -156.75995628
C        4.54064604       6.56018744       8.04709632    -155.24167599
C        0.97295316       8.83765804       7.17919485    -156.16606523
C        5.16810973      13.14649876       4.55382123    -154.53595303
C        3.68058425      11.61827742       7.91012216    -156.21032939
C       11.66167879       7.42703187       8.96464069    -156.02413909
C        8.48283394       1.55668579       2.55792470    -156.85025285
C        1.27509914       7.61167329       7.97704256    -156.58485615
C       11.62161212       2.35168957       0.29197831    -154.44930816
C        5.63027324       5.11903310       0.18708392    -153.58120452
C       10.29532227      11.21691861       3.55333734    -153.10201650
C        9.83286933       3.15376542      11.00453002    -155.37641835
C        4.48209384      10.76707460       9.14973512    -154.80763155
C        5.27786523       8.44530919       0.39300068    -154.80723464
C        6.19539702      11.63628477       1.82339844    -156.59283728
C       11.40422778      11.21671727       2.02582069    -158.01222776
C        2.24489126       4.43139390       7.79919638    -156.90187656
C       11.02048622       3.37685020       3.20895776    -155.33395228
C        3.95877329       1.94007500      11.50043057    -156.57484411
C        6.53009969       8.60797937       7.87883895    -155.94984696
C        7.14972370       6.33188041       4.38972909    -153.94757227
C        8.53426374       6.06992441       0.48032690    -155.09432732
C       11.51621060       7.31794332       1.16961205    -155.91216072
C       11.51381969       0.18093298      11.23659960    -154.19105482
C        4.68165958       8.41397565      10.44383573    -156.28772400
C       11.76134211       6.31796278       3.52391653    -156.09697773
C        8.01069152       0.42488666       8.22607504    -155.64355573
C       10.96021004       3.46576700      12.15332603    -156.10211110
C        5.01188244       7.43785390       1.30826991    -156.72713430
C        2.84021604       3.55738931       4.04395272    -157.75547302
C        6.17133688       9.70724573       8.42726409    -154.73656538
C        3.69128044      10.01042609       6.00929589    -156.02124328
C        0.91938538      10.99028521       8.46662607    -154.74792473
C        2.62319663       4.96195010       0.49650583    -154.51360380
C       12.09133846      12.27250676       8.15199449    -155.42478073
C       12.53154332      10.84598731      10.42356330    -154.74111576
C        9.26787139       0.67600174       5.03090907    -156.64110483
C        8.87007378       2.74831689       0.21606304    -156.81889498
C        9.49800308       3.60543408       9.40274406    -154.69031580
C       12.23020018       0.88051416      10.31134139    -157.30043934
C       11.87455814       3.51553575       8.83107673    -155.16425846
C        9.75151537       1.23639026       2.98679160    -155.67399080
C       10.76654608       6.92485203      10.81542138    -156.49513207
C        6.21373155       6.81396400       6.48627048    -155.85346861
C        6.26892389       2.71576272       4.92452602    -155.75503207
C        0.68488210      10.76006545      11.61281607    -156.79654369
C        7.35295132       5.86186464       6.11717641    -156.41918925
C        7.75262391       3.40112426       7.73802675    -154.29403540
C        5.88699439       6.13364854       7.92162371    -155.84633782
C        9.27683103       7.10560506      12.30597954    -157.15177552
C        4.11740408      10.19374621      10.25607354    -156.33872668
C        2.05315261       2.96315931       8.77429884    -155.88867112
C        7.09231662       3.91471757      11.59309733    -157.10132332
C        9.14395918       9.13157676       3.73669521    -154.61056627
C        1.94198773       8.71703018       4.64039745    -156.04774189
C        9.85432463      10.62052421      10.91992945    -153.96537238
C        7.84086119       1.69983856      10.87443918    -154.45096059
C        4.43847855       7.61419004       6.53990243    -155.78959996
C        9.77176263       8.25353279       3.26935978    -156.50565976
C        5.48545941       6.60489752       9.55462996    -155.18940316
C        9.51924445       1.41267731       7.61016324    -157.42226923
C        5.64500882       3.17388684       8.53096680    -155.87162511
C        2.26432057       1.11592095       3.99878962    -156.69380678
C        8.43514152      12.71412099      12.39485859    -156.62717344
C        6.64181825       4.17976916      10.15827261    -154.47385850
C        0.34583552       1.06962155       1.93251216    -156.14703416
C        1.55077142       7.54005915      10.04479232    -154.33821790
C        6.59715851       2.79084998       7.28365259    -157.60280176
C       10.84056372       2.02446165       2.91682593    -158.23938133
C       12.31498951       4.98450019      12.29920948    -154.15238340
C        1.62366911       1.99486466       7.87766866    -155.59957905
C        0.16916591       7.73193622      10.72450376    -155.74028189
C        7.13474904       8.11473399       9.48285224    -155.94947636
C        8.78084239       1.37079858       0.52859943    -155.41625129
C        2.57647316       4.92906876       5.01892934    -156.33118930
C        8.36630839      10.40024560      12.05693448    -154.92619227
C        8.92081148       6.54257019       1.84919513    -156.33743414
C        9.27746021      10.52161590       1.21473613    -155.76268552
C        1.84197206      12.28491434      10.36477200    -155.86841430
C        4.29356405       4.29507410       0.77207241    -155.06828990
C       10.45149923       8.13673039       2.20503851    -155.25778104
C        2.61359523      10.58423266       7.74630686    -156.70759250
C        8.68416141       8.48009069       9.50883769    -155.84944142
C        4.58592239      10.14468216       3.39211429    -155.92957126
C       11.49473013       9.46381302       6.89346815    -154.80235336
C        6.64229643       9.15476862       3.91237699    -154.94048073
C        7.14870442       9.91778450       0.32506100    -156.90395646
C        2.29575479       8.05189073       3.16137859    -156.01714136
C        8.19710724       3.10682802       9.96200381    -155.69710273
C        4.11030685       1.51052858      10.24872463    -155.29508757
C       10.97397667       4.71455351       9.54086334    -155.50749150
C        4.57798204       7.43016523       2.81790505    -155.53512280
C       11.17399543       2.82067347       7.08056339    -154.35213449
C       -0.07973557       7.10524013       2.20586904    -156.36285910
C        6.16534702       2.72418125       3.37443412    -155.00997114
C        7.08972437      11.31298298       8.52107597    -154.73941393
C        8.15055994      12.51718526       4.18182032    -155.34068418
C        0.04586262       1.54562467       7.72604702    -155.44340270
C        3.86199164       7.24254147       5.39186145    -157.03508842
C       10.00210823       1.52304941      10.36737684    -155.82908176
C        3.08646751       6.51527603       3.39858234    -155.27356404
C        5.34549032       2.71349765       0.76046264    -154.92860787
C        9.83904796       3.65493857       2.15881838    -156.02547926
C        9.70651587       8.26743784      10.80393241    -155.85335707
C        5.51881894      11.59409145      11.28146068    -153.62452024
C        7.16520172      11.01661042       6.89330456    -156.45494677
C        9.37231655       7.35561907       7.18040289    -157.59563020
C       12.59533036       9.69306384       7.76813967    -158.00664331
C        3.17649168       6.48382923       0.56538426    -154.06074376
C        9.59345084       7.96554101       8.62071413    -157.27013299
C        1.37846209       2.20773143      10.87232511    -153.11766834
C       10.73891216       8.11168872       7.87516450    -156.20390934
C        6.11282243       9.33822716       5.08961228    -157.45325019
C        9.86062909       8.63799162      11.91360553    -153.85658167
C        4.15676606      11.80057826       6.71617565    -156.79997373
C        9.15128292       2.03715866       4.30166798    -156.28025268
C       11.94550534       5.04843824       3.67897353    -154.79766067
C        4.51013044      11.85037217      10.58917808    -157.05152188
C        3.72531950      10.31426082       4.61594722    -156.63526140
C        7.05354608      12.48500860       7.61459272    -155.71194794
C        0.56501304       5.73601452       0.28004514    -157.00744360
C        4.75815622       9.35025723      11.33101550    -156.00762847
C        6.06036076      10.08932623      12.27917615    -155.13557731
C        6.74589847       3.53594659       5.86541326    -156.56251507
C        3.35265164       4.54974410       8.76999519    -155.67789201
C        6.08044443       7.54760940      10.55721534    -156.23805987
C       10.60286920       6.85557847      12.26509493    -155.63454188
C       10.70995694       1.56365719      11.44157636    -156.15196052
C        7.94061260       5.13091216       8.21105004    -154.45927641
C        5.74447080       3.69112944       2.16378897    -155.49587695
C        0.81585129       3.89591744       8.43205850    -156.80088631
C       11.95620153       1.94051543       2.05716682    -156.44838028
C        3.02822990      12.03512683      10.73935259    -155.44435947
C        6.95051030      10.62275153       5.45325758    -156.11172690
C        6.52545628      12.27150006       5.06923918    -155.45343630
C        1.80966956       0.56791989      -0.08665298    -155.21399269
C        8.67078488       4.35996851       4.57920266    -154.79091477
C        8.69943809      10.23407714       7.21683286    -154.73150986
C       11.03631658       9.83739949       1.41408669    -154.78054490
C        8.78335914       6.64016978       8.28583529    -155.03265663
C       12.24956657       9.66487623       9.32130201    -155.07320088
C        2.91841148       2.02532993       8.38471842    -156.00519459
C        5.26597358      10.25588479       2.28899731    -156.27892295
C       11.72915287       7.56645986      11.55272865    -155.72822943
C        4.40446466       9.07177877       5.56768165    -155.87585209
C        4.68995228       3.48658053       9.75014374    -154.68845972
C        7.15693419       0.42870331       0.14263559    -154.45419073
C        3.53258673       2.36744443       4.09778601    -156.17142525
C        8.98566814       0.46248314       6.59854272    -155.40019314
C        1.55361535       3.80346461       3.40016790    -152.59330829
C       10.02043018      10.46729184       6.98229686    -156.44885296
C        7.63275107       2.47496002      12.20783885    -156.71709729
C        8.97577731       8.00778467       5.29370818    -153.00291205
C        2.77973852       7.46819333       4.55119123    -157.30918509
C        0.39367266       5.28608242       9.02953511    -154.37818774
C        8.38018827       6.94508671       6.25880655    -157.03996351
C        2.71270487       9.54675254       8.48703692    -154.55127320
200
Lattice="12.58375331064208 0.0 0.0 0.0 12.58375331064208 0.0 0.0 0.0 12.58375331064208" Properties=species:S:1:pos:R:3:gap17_energy:R:1 anneal_T=3100 density=2.0 run_id=297 time=2 pbc="T T T"
C        7.21040256      10.64913966       4.37884414    -154.54918442
C        8.53509427       2.30647614       4.75268229    -155.94311030
C        3.49491097       1.55208013       3.13408443    -156.86075796
C        0.79195474      10.37744384       9.91996149    -157.36797062
C        3.21601725      12.13272642       6.06623737    -156.39407627
C        3.92527534       6.55003235       8.74092672    -155.12114564
C       12.13051168       1.03447387       9.89882079    -155.09578588
C        7.25750355       6.04604045       4.61502861    -156.07179179
C        2.56466959       0.74399931       9.81647270    -154.33508712
C       -0.03927301       0.48256932      11.31269356    -155.64117483
C       12.64704959       7.03916285       0.39340588    -156.04559805
C        4.30345488       2.15693082       8.74949626    -154.95372920
C        2.86700685       2.93414118       2.73293954    -154.89114340
C        4.80768587       4.52198434       7.27752430    -156.83500080