200
Lattice="15.358753351315912 0.0 0.0 0.0 15.358753351315912 0.0 0.0 0.0 15.358753351315912" Properties=species:S:1:pos:R:3:gap17_energy:R:1 anneal_T=2200 density=1.1 run_id=54 time=0 pbc="T T T"
C        6.11255345       3.07743341       3.61173372    -153.75960045
C        9.17111095       0.97136436       0.34988008    -155.61342600
C       10.13304503       0.04925783       4.99368363    -152.52777220
C       14.66676472       3.51257761      12.91425417    -154.94592533
C       13.47268308      10.64848480       2.59860891    -153.01773893
C        7.69373711      13.43024685       0.92364932    -155.45900594
C       11.65979727      12.99803617      11.10927812    -151.54777274
C       11.90627454       0.93148075       5.70184503    -154.20779021
C        7.92609969       7.46585929       8.53929792    -152.75074624
C        2.14144026       0.21760435      12.07061321    -154.33311919
C        2.03624816       9.72058571       0.85221422    -154.06932328
C        5.57659440       5.06494825       1.76584195    -150.71233569
C        3.58239850       3.09759945       3.16136900    -157.00646557
C       13.94315241      11.42204377      10.09980869    -153.92132710
C        8.40572284       2.91518354       2.95700542    -150.39421894
C        9.08957133       5.31704682       2.03987283    -152.83909353
C        5.37857399       1.36426430       0.05398464    -152.80508472
C        3.81288731       1.11886675      10.46424119    -153.59624280
C       15.11422664       8.74636463      11.80605868    -151.96219270
C        8.10760944       0.38447721      10.34024998    -151.80522796
C        7.17914208      14.66450698       4.79581681    -151.73872299
C       12.36631528      15.35778575       3.33145183    -151.76034327
C       11.56627782       5.55042308       0.29127876    -156.55719688
C        7.00491238       4.14351520       6.21812952    -153.84527140
C        9.88632202       1.49284472      14.81445449    -155.35412162
C       12.88842074       9.94247362       0.89587148    -153.99810594
C        9.25539979       7.47197207       2.84924841    -153.27286244
C        5.05686954       3.09703118      13.06157533    -158.82340201
C       10.04419465       3.28121335       3.35296944    -153.94456621
C        6.47760030       3.40058158       8.35167539    -159.44863426
C        0.30850360      14.32917932       0.41885931    -153.75022457
C       13.52262975       4.59131501      13.06747309    -153.35692479
C       10.79771044       1.39889522      10.84926978    -152.08225985
C       10.43344689       3.55811631       7.28510212    -150.85244443
C       10.27363906       0.37398872      15.18652029    -154.99553849
C       13.77939739      12.72001201       2.29765414    -153.09613579
C        0.57775944       9.60375168       5.16732970    -154.65354267
C        9.63637367      11.39018971      12.66687073    -151.12620156
C        0.82051068       6.81570790       0.29969689    -154.92588593
C        2.52825047       5.92758799      10.16282566    -155.38679721
C        3.90129230       4.45414598       7.22575590    -155.42386625
C       11.70191097       8.57333291       2.92900642    -152.07986725
C       12.96787158       7.35616707      14.35384548    -154.94221676
C       10.02708500      10.28770768       6.52227892    -153.05192541
C        6.00436639       0.67390831       1.51370037    -153.91945362
C        6.16672378       0.59842311       6.03872393    -154.13750362
C       14.82376190      13.80355670       2.35921203    -156.62874387
C       12.06837083       7.95110374       4.95760592    -153.20374335
C        5.50030747      15.10984939       4.25875192    -157.56451974
C        8.61535446      10.91073551       0.10727659    -151.94405929
C        4.05162378       2.48705829       1.59821651    -152.26665985
C        5.89452059       3.43289640      14.19474415    -151.45905253
C        3.22917789      14.38520805      12.59625118    -155.72322736
C       13.33153614      10.75954394       5.92127554    -151.16705982
C        2.71556582       4.49601394       0.06099959    -152.50934198
C        2.51461189       7.57469141      13.37355769    -153.08141143
C        3.66403028      11.58555306       7.84221018    -154.11514674
C        7.18726686       0.03290306       2.47404942    -154.99571433
C        6.36757019       9.44501896       5.22910260    -151.64315524
C        9.81567176      14.20461983      12.28038306    -153.59274152
C        8.62939236      14.71144333       8.93830297    -153.04734874
C        1.12024750       8.71366584       6.23270498    -154.60447391
C       10.48293279      14.11024029       8.11174094    -153.95827717
C        9.51248996       3.92155049      14.46303086    -153.17456771
C       11.43746396       5.10680085      14.54046969    -153.10487343
C        4.26234587       4.94032732       4.61750168    -153.65262609
C        0.51484691      14.92995232       4.91538471    -158.96073435
C        9.32013694       2.61547283       2.64979964    -156.14173574
C        2.01413156       5.28007830       8.81031848    -153.78046520
C        0.34955908       4.01305795      11.31758889    -153.00599314
C        0.52202252       6.05096485       5.67367708    -149.80862703
C        4.73121789       0.33748864       4.81151346    -151.50406653
C       13.24397588       0.59095107       4.06283567    -157.77455105
C        8.90150340      13.52605475       1.66281543    -153.97100105
C        6.41317033      14.37682217       5.60445517    -152.25403685
C       14.74598517      11.45664704      13.38963830    -154.82738986
C        7.79241710       7.10443710      11.89497050    -153.22524987
C       15.33026286      15.09220219      11.75144295    -153.15354801
C        2.09676165      11.10685143       8.67766493    -154.15343879
C       12.97188021      10.40080954       9.55612418    -156.71119753
C        9.72020174       1.11036261       2.72699273    -151.08193734
C        6.26666318       5.81136830      10.94515448    -155.41148318
C        5.01283600       8.51867111       8.08980864    -157.25402493
C        0.67937449      13.05272869       2.09794427    -154.06979629
C        9.92468819      10.32352429       4.03118127    -152.87330533
C        2.93812952       1.74976133      11.72200022    -154.80245112
C       11.59599701      11.26423258       1.36547611    -152.38768382
C       12.40755354       6.46850792      14.89442752    -156.92826119
C        7.49983285       2.46190065       5.26120240    -153.06384765
C        8.46579092       3.69325798      13.11101516    -154.07709385
C       11.99265217       1.45162182       7.13033196    -155.79873800
C       13.75158268       1.44268917       4.70937775    -153.24521040
C        6.59177727      11.62454893       5.58708442    -148.46598679
C        8.85682478      12.20937954       6.69365189    -155.22746207
C        1.84047013      12.73921046       0.12881233    -154.29562218
C        3.92033715       9.96439056       7.82127620    -156.19779483
C       15.34305671      10.50047249       0.47677871    -152.68517980
C        6.56505304       0.20651533       4.40458329    -154.47815294
C        2.64586780      10.93563205       2.35569487    -153.30337197
C        2.70908443      14.68645464       1.04413106    -152.10802510
C       15.00141660      12.36418042       8.17630914    -151.75293670
C        4.10252268       2.69346458      13.54063021    -151.74501342
C        4.26593982      10.75559674      12.17176595    -152.65400361
C        0.58620983       0.81349480       5.11498706    -152.82413306
C        9.34692260       6.14482219      10.42910036    -154.06047033
C        9.45738276       6.79649410       4.66365474    -154.44370145
C       11.05622898       7.90284654      10.62940923    -151.32530894
C        0.44692590      10.46032471      12.90000124    -156.37703485
C       14.61417635       8.48902872       0.44972734    -153.99689280
C        6.74843656       2.30505706      10.97447434    -152.98638029
C        6.58862873       7.43746095      14.12171328    -153.60105315
C        2.79627607      10.89215142      10.59749374    -150.96739530
C        5.28875600       2.40264658       7.57243368    -154.93058935
C        0.86965716       2.59255757       3.90393400    -153.86850832
C        4.62644048       7.68722500       5.03731785    -149.76547165
C        8.21810031      12.65888418      14.71330174    -154.12588907
C        4.56964381       7.66911703      14.88034354    -152.66144543
C        1.15937853       7.90920506      14.23753364    -155.47997056
C       13.29384576       5.65262022       9.64646437    -155.99332321
C       15.33284313       6.17567793       8.78674279    -152.18343123
C        6.07801162      11.10404078       6.02110744    -148.74993534
C        5.97721212      14.40162656       3.07938397    -153.11954413
C        2.15077838      14.72919805       4.14981229    -151.93471330
C       13.01119862      13.55356228      15.02886269    -151.78038639
C        0.78808989       0.14511826       3.72965823    -155.40629026
C        9.76537184      10.15603709       9.67827235    -155.02418644
C        2.66697073      10.55820605       6.52326188    -151.72383161
C       13.29504374      12.51921167      12.51844374    -151.91150940
C        4.70586059       9.26791718       9.01472813    -153.10227972
C       14.10099432       6.79606405      11.91920661    -153.13676756
C       14.01730447       2.07585839       8.71896461    -150.11240455
C        0.77444364      14.89233873      15.04712425    -154.08709260
C       13.88185563       9.20508452      14.30090386    -151.27463848
C       13.05612297      11.57225238      14.55338640    -154.36062378
C        5.20113431       2.71223297      11.38934498    -154.85632526
C       12.38757180      11.85790983       8.70466561    -151.89514180
C       11.76162581       9.25460114      14.13962159    -154.35848663
C        5.07482392       5.82164331      12.09446535    -155.17012821
C        8.56551531       9.15999122       3.52340553    -152.46269189
C        4.55096756       3.62137902       7.68767040    -156.78243380
C        8.43584135       8.61572307      12.77450487    -152.80877186
C        0.88428176       9.44355988      13.26057870    -154.73201346
C        2.52261380       1.75595091      14.03518206    -153.14223729
C        5.06281338       4.37315928      12.26926332    -155.33015873
C       12.09953374       7.88364810      12.96690397    -153.84838261
C       11.63843324       6.69492666       1.62065565    -151.93781745
C        6.19180462       8.47284059      14.40064360    -154.90012561
C        3.76539805      13.64359529      13.10798948    -153.00795261
C        7.81645355       3.19044312       7.84191836    -152.43785679
C        8.71028692      11.16102176       5.42257682    -154.73879160
C        5.47404400       7.62843169       1.38963697    -149.30425787
C        0.58649857       1.31186945       8.26732511    -150.44071612
C        5.48106295      13.54268828      11.85351723    -151.60081079
C       11.62903369       4.53493303       4.10476506    -153.14653014
C       12.75271080       5.96249843      10.66582483    -155.25069620
C        1.90348710       5.07049276      11.49647229    -154.13090919
C        0.38478746       5.81677458      12.90906291    -152.47643216
C       14.34564390       1.53445926      13.32940127    -151.36014924
C        2.65701825      11.71289248      12.71366885    -153.23305629
C        4.58188473       7.19321070       7.71468645    -155.26100639
C        6.65792743      11.35687658      13.56277753    -150.78888582
C        7.53824509      13.53178356      11.46624626    -151.12414966
C       15.24502178       4.90031777       0.15459968    -152.62825290
C       10.57364159      14.18413125      10.33774650    -155.28204400
C        9.44862827      13.55898392      11.07693258    -156.86672921
C       11.84649828       0.47197603       7.93763411    -155.88050955
C        2.34850697       8.14259668       4.06418724    -149.24848102
C       12.93336046       9.60134035      14.33622899    -155.35061088
C        1.63014736      12.67281457       7.46072946    -152.97163181
C        8.69723198       9.07691572       8.62456972    -152.94519469
C        0.89638907      14.72494368      13.30068040    -154.48025209
C       11.17598118       6.27068718       4.50000722    -153.70444215
C       10.47087617       0.33436928       8.88800305    -154.77735589
C        0.31404043      13.88747693       6.09521342    -152.14464254
C        4.59000952       0.84721648       6.44934020    -154.20851604
C        9.64353085      10.96103543       8.15207303    -153.90962164
C       11.79722740       6.23626821       8.57164345    -151.34858075
C        2.63430266       5.11392731      14.46826819    -155.79594029
C        3.58419548       2.56807571       4.61633442    -155.60945317
C        8.72463199       5.61270282       9.19754337    -154.73235817
C        1.61208547       8.17291486       0.83253505    -154.51517089
C        3.73881205      11.09522486       6.72095975    -155.51886609
C        7.00036619       4.24988992       7.31233319    -156.30242949
C        4.09843726       5.67561228       7.13532356    -154.50754021
C        9.52623605       4.73261554       4.38470906    -153.72645510
C        6.31558081       4.30376843       4.66207279    -155.22003661
C        7.43816745      11.97024375       7.35673534    -153.27003492
C       13.99288406      14.23463083       7.82367216    -152.06529176
C        3.93787685      14.93661802       2.54062962    -153.30241763
C       11.89480156      13.94398179       6.93710348    -153.71232850
C       13.14967314       3.34986698       0.50872952    -151.87851232
C        9.42013778       7.20282528       6.50856355    -151.84227419
C        2.30106379       3.09434340       3.37669872    -156.10049969
C       10.09504748       9.73910837      13.60166589    -152.69170052
C        5.27620790       7.34062401       8.62281882    -153.50421575
C        2.38352493       2.79831878       5.62337716    -153.69930478
C        5.90004974       7.20222629      10.82142436    -154.60917894
C        3.74647606       5.31021218      13.76423830    -153.41940953
C        1.79021629      11.64337876       1.09845958    -156.68619112
C        5.74130167       4.18407766       9.21855414    -152.81785521
200
Lattice="15.358753351315912 0.0 0.0 0.0 15.358753351315912 0.0 0.0 0.0 15.358753351315912" Properties=species:S:1:pos:R:3:gap17_energy:R:1 anneal_T=2200 density=1.1 run_id=54 time=1 pbc="T T T"
C        4.20716187      14.33303437       2.75082952    -155.83855298
C        3.94426609       2.36848871       1.94745921    -156.49033101
C        8.41840917      13.12013826       2.36295956    -156.97964258
C       13.19667092       1.47228242       7.67372465    -154.83641670
C        4.45167322       1.85197384      10.43817739    -153.46821386
C       10.91414515       8.63894551      10.47161339    -153.67596733
C       10.54071243       7.84265558      15.54336557    -157.33818375
C        6.05787629       0.08593960       4.88463648    -154.12691841
C        4.75176791      14.34707227       6.67003012    -154.59841827
C       11.70063620       6.71177521      11.75841583    -156.22504984
C       13.89222279       6.10300031      15.19161940    -155.94957036
C       14.75988484       0.04631954      11.04540106    -154.61873907
C        0.36087848      11.41826552       2.37288132    -154.95424982
C       14.72368426       7.57017594       3.47955629    -155.80919831
C        1.15951369       1.27632315      13.69609151    -153.10950542
C        1.11757354      10.16563631      10.40369699    -156.14545494
C       14.66707189      14.05281391      10.48256418    -157.68068469
C        5.69657698      13.71447594      13.99635514    -153.98257209
C       15.18490762       5.75067051       8.32679421    -156.42823976
C       12.80420870       9.94622116       9.83869453    -154.88753551
C        0.57821406      14.12804109       8.16993526    -154.22095127
C       15.19430718       9.01386804       6.69188563    -154.86579222
C        7.49533273      13.21110815       5.15984998    -155.45453992
C        3.67673196      15.19089754       2.35584846    -153.74709833
C        8.88875563      14.40833834       1.13349289    -155.26490804
C        9.32981295       7.77512314       5.61092121    -156.39097219
C        2.23958270       4.06546201       4.19174168    -155.65712135
C        1.94810428      15.24296371      13.43680503    -155.57338657
C        7.43858214      15.19518263       9.98851917    -154.64994506
C        3.05192252      11.95880148       3.26745191    -155.29932910
C       10.42980687       6.76052390       0.57585035    -153.85483475
C        8.31696460      14.22604529      13.38655119    -155.19266553
C        9.02391266       7.76601540       2.86211905    -155.40292437
C       10.24428849       7.41042955       9.25733499    -155.30074868
C        0.05670682       8.26033688       2.49125123    -156.94070837
C       12.05198304       7.12504855       5.74584786    -153.24720735
C       10.15798765      10.86226329      10.20649059    -153.89302908
C       12.47912533      12.86022207      11.19061807    -153.77014229
C        9.06975854       8.12350575       8.49824397    -155.85442850
C       10.93669180      14.11076249       9.86383681    -158.08455120
C       11.24216205       7.96113301       3.20948797    -156.57473211
C        9.44159396       3.08162635       2.35598669    -156.43830530
C        6.97338086       6.30229549      10.50870478    -157.59810934
C        9.59762353       8.56743515       6.66414772    -156.13372418
C       12.67123261       2.89441850       8.37718628    -156.86410610
C       11.52190638       0.62331657       0.31617069    -155.12724245
C       12.95117661       9.11522045       4.47727627    -155.98753976
C       10.28769232      11.44099647       1.49556168    -155.96522510
C        9.23981066       3.62598664       3.65859328    -156.48192490
C        6.77167435       2.84387285       8.45949383    -152.86131925
C        5.74733766       6.64498000      10.67404176    -154.40963810
C        7.90209396       5.66281844      11.31507005    -155.80767120
C        1.11847971      11.21900105       6.68861421    -155.81103408
C       10.77783622      12.68511693      13.61876018    -156.72087658
C        7.13056234      13.13922919      11.32830930    -156.93027595
C        1.16494608       7.61792630      15.13096768    -155.04849841
C        5.13057620      12.36164622       7.38587090    -156.53394555
C        9.56062430      13.53616081       9.60654697    -154.66502712
C        4.05865808      13.49940731       4.02178172    -155.79700471
C       14.47759095       6.74000460       0.68519392    -157.84741563
C       10.08772135       0.94192316       0.94548639    -156.07163656
C        2.16077693      10.83500150       3.24535066    -155.66728259
C       12.12512142      13.41450412       2.40181721    -158.73409831
C        7.18794264       5.73733911      12.72173219    -153.43158428
C       12.13518140       9.35934783       3.63881120    -154.57313904
C       10.47430118       7.20572808       2.18614959    -156.55884908
C        9.74366992       7.57773245      10.39637086    -156.41122501
C        6.42246238       1.36310165       0.16741348    -155.97830991
C        9.88771967       8.00277059      13.02058282    -155.09611546
C       14.87057538       0.51404980       9.36390938    -155.48174672
C        1.51576305      10.92796803       9.32477528    -156.79010296
C        7.23653774       7.59089490       3.17029243    -156.83090815
C       10.71297620       8.54479635      13.99600188    -155.96488248
C       13.91085296       6.65929435      13.46515729    -158.42631587
C        7.12623117       0.45802106       3.99628619    -156.46367543
C       14.84796729       6.76536190      12.61177888    -153.34368805
C        9.65693904      11.90653564      14.03730157    -155.31276318
C       14.69527057       7.98887091       1.05659469    -156.90377366
C        1.94661448       7.99983706       1.00699666    -156.79445909
C        0.76595024       9.13593941      14.66916068    -156.35685526
C        3.31329778      14.12188223       7.12173106    -156.31230493
C        4.30940509       7.88326413       1.37517670    -155.58982930
C       11.08309144      14.45693343       1.92076569    -155.52515848
C       14.87142011      10.83884119       1.53971502    -156.22780002
C        6.55158342      14.55393932      10.48488336    -156.51845979
C       11.73589989      14.07594420      11.21787986    -155.57417688
C       10.25474780      13.52203076       8.64278520    -154.90527300
C        9.90232584       9.98490986       1.30453872    -156.01908048
C        7.66573810       0.53079852      -0.03370033    -158.40871282
C        5.21632412       8.41925390       2.29753127    -156.70259161
C        9.84287211       2.38029959       1.20646079    -157.06004034
C        9.73351778       4.15432776       6.00897402    -157.96690499
C        9.76480356      10.89579144       4.38305031    -153.17936893
C        9.11500543       8.16259377       4.34823202    -156.11382377
C        3.09849026       2.23987451       3.04385917    -155.97592102
C        4.76975301       0.68919334       0.78801924    -155.94019630
C       11.40616282       3.59416331       9.70866732    -154.00560600
C        1.99021798       9.06570383       8.43997286    -157.34901218
C        5.02355640       0.99090837       2.28337050    -155.73002468
C        2.71269373       8.93811867      11.88819729    -154.11805720
C        9.85867626       8.92882662       0.71827667    -156.15769676
C        0.74861636      12.33655002       7.00703189    -156.59974813
C        3.02406174       2.79996217       4.31373626    -155.82301631
C        7.65816624       6.36580394       3.74461765    -155.95285923
C        8.68843141      15.14804661       4.17272755    -154.39606163
C       11.89033216       3.40793842       1.17720237    -153.28261607
C        0.14309704       5.74507992       1.35274063    -153.77671762
C        7.61359514      14.56264773       0.24521478    -154.80995528
C        0.88600808      14.12963840      14.85666035    -155.58667551
C        6.65414917       8.62430862       3.89863523    -156.03104724
C       10.48913773       7.51316425       4.21041793    -156.23151328
C        6.15099641       6.17601582      14.55252631    -153.68951738
C        7.66364931      11.94625338      10.88639189    -156.11676970
C        3.83773778       4.50662684      11.55604889    -156.20832128
C       14.05702221       8.80999594       9.64073555    -155.23017746
C        3.45618027      11.56008824       9.19961680    -154.04522294
C       11.71577993      14.36513416      13.64918587    -155.03711029
C       12.80192025       6.81947079      14.39967600    -154.25660326
C        1.27003221       9.05350898      11.19957223    -155.67441630
C       14.21329753       9.27332346       1.00162110    -155.27511541
C        6.14621984       8.75874378      14.68826697    -156.10899639
C        6.25549737      13.54370196      12.65426119    -155.41154991
C        8.79170367      10.78216739       3.16278200    -154.99416002
C       13.36896542       9.15185108      14.68802123    -155.07841479
C        8.32782324       8.59703147       7.11769171    -155.14828272
C        3.08073554       0.42035218      13.85669799    -156.67716869
C       13.40278539      13.20803640       1.90519192    -152.95225914
C        1.96185036      14.45138892       7.16794555    -157.10056227
C        2.33033757      14.63905753       8.80071926    -155.87269805
C        1.16070707      12.15694476       9.59806894    -154.73630022
C        1.01153057      10.10122170       7.61743482    -156.51143878
C       12.73773602       3.64900941       9.49104914    -155.84150307
C        6.22794377       2.61127989      14.53325108    -155.83301758
C       14.96897891       8.09039227       5.07715845    -154.99411344
C        4.80979328      12.75968367       6.29793361    -155.57319981
C        9.02747589       0.45101747      14.83137984    -154.00633545
C        0.88854996      13.02168865       0.22159917    -155.10048267
C       10.53894617       7.60480993      11.64669625    -158.55731612
C        8.91819836      14.62798387      12.27419348    -154.10746041
C        7.43523393       5.56558217       4.87952202    -156.62541906
C        1.12536197       9.76214650      13.73510274    -153.59215521
C        4.81599821       4.98898385      11.00580619    -156.35366504
C        6.62796250      14.29907616       4.20561064    -156.26678469
C        6.31502790       7.69687030      14.10948771    -156.05785196
C       15.35505189       7.79461340       6.82940791    -157.33635455
C       13.62379786       7.91966437       4.50377012    -157.16381904
C        3.73400476      15.20246268      14.70617528    -156.46436612
C       10.85002236      13.78547945      14.41018139    -154.97446826
C       14.97854741      13.17682742       9.47658120    -154.81685325
C       11.13165582       4.42677668       6.17515573    -156.07268718
C       13.95540870      14.52627820      13.15722965    -154.30290846
C       15.01044754      12.23217193       1.51520552    -156.15488068
C        5.17058575       3.05878788       2.17828591    -155.40351593
C       13.20533326       9.92456532      11.51464169    -155.44180608
C        6.46706420      12.67568665       5.66550622    -155.49546871
C        4.68970318       8.77505478      14.90886475    -155.55354255
C        1.72747578       4.13657304       2.95718973    -156.15252725
C       15.35789326       6.92888655       7.74624869    -156.45268822
C       11.36234429      12.42864110       2.18304713    -154.78394938
C        1.69883171       8.32693243       2.33537524    -157.63921603
C        9.90982091       9.53420724      13.56767697    -157.10827882
C        8.55198425      11.91320134       2.00870992    -156.22627987
C        5.44301932       8.81965660       3.83534181    -155.20375224
C       14.26153937      14.02851636      14.31807494    -155.19730972
C        8.99018484       3.64410997       4.89876653    -156.18202990
C       13.58229850      10.40653836      14.74655344    -155.16846740
C        4.52301463      11.39052761       7.96641642    -155.05531371
C       14.25984991       7.47665649       9.62072310    -156.03516691
C       13.94074109       1.05573613       8.58686398    -157.70301655
C        3.22854818       5.62042828      11.10021645    -154.25806661
C        2.55029028      14.05428835       9.96718586    -156.84200348
C        6.10404470       3.27390258      13.34737101    -155.17427405
C       12.79656004       6.19268007      11.24546418    -154.77491890
C       11.75012210       4.29839287       7.41267192    -154.58490065
C       12.03627103      10.67060140      11.19166247    -154.97172947
C        0.16346321      14.27683669      11.58483120    -155.34538652
C        1.70001433       9.12655521       3.27720471    -154.63519084
C        7.12686088       3.75738078      13.18982092    -154.26496634
C       13.08952826      13.68183858      14.10661563    -157.17913656
C       15.08894613       4.73668561       9.42588195    -154.41410799
C        0.95086656      12.73136213      11.45379031    -154.55221156
C        7.41096710       5.57733162       6.24138268    -155.22925368
C        8.78073752       3.40090411       7.43767597    -155.02307873
C       12.05273562      15.26486529       1.10114429    -155.72623481
C        2.60412271       8.08160707       8.20120568    -154.70358368
C        3.36497999       8.31367783       0.15535993    -156.27718926
C        4.74531723      12.40337596       4.06374183    -154.25039617
C       10.59477524       3.77359962       1.21420928    -156.91518359
C        0.46691378       5.09144209       2.88523397    -155.53004399
C       10.11042159      10.75797735      13.56486632    -156.49727336
C        2.87346916      13.18244872      10.99494756    -154.71605718
C        5.00650819      14.80570000       0.12377466    -154.90600431
C        5.35906837       3.39342440      10.79840159    -153.28337116
C        8.71813524       5.47247741       6.17157714    -155.04108339
C       13.65118251       5.92391724       9.54703180    -154.78349780
C        7.86643093       3.91543771       8.14405576    -156.64109511
C        9.14143784      14.11278984       2.91249576    -155.57991068
C        0.70068015      13.77382216       6.99875352    -157.45952420
C        8.98201398      11.55508129      10.24201539    -157.38552758
C        6.03901574       2.33244172       2.33244172    -153.89462783
200
Lattice="15.358753351315912 0.0 0.0 0.0 15.358753351315912 0.0 0.0 0.0 15.358753351315912" Properties=species:S:1:pos:R:3:gap17_energy:R:1 anneal_T=2200 density=1.1 run_id=54 time=2 pbc="T T T"
C        2.08743889       3.86942288       9.95566679    -155.12508180
C        7.55859544       0.50332171       6.22249141    -152.54879992
C       13.03366848       7.04859268       7.91826673    -156.73647005
C        6.32461176       6.17137748       6.32459640    -154.80317840
C        4.18215782       3.81935335       1.42577611    -154.92228124
C       11.75297883      11.73930954       8.34858828    -156.01125311
C       11.68415625      10.55154035      13.79675278    -155.50215769
C        8.19265085       1.76349206      11.07839166    -153.42906124
C       14.77121960       0.64565127       0.19375528    -157.11837452
C        9.71811295       3.59098404       1.51878258    -156.10771953
C        8.04867790       9.70742326      14.63927255    -156.89561366
C       12.63368046      13.97720277       1.82265398    -156.50043732
C       12.35006572       7.43360590      12.38959915    -154.05205390
C        0.98337183      10.95395504       9.64393018    -155.63266946