200
Lattice="15.854535682762254 0.0 0.0 0.0 15.854535682762254 0.0 0.0 0.0 15.854535682762254" Properties=species:S:1:pos:R:3:gap17_energy:R:1 anneal_T=2400 density=1.0 run_id=105 time=0 pbc="T T T"
C       13.66867085       2.34125514      15.09835360    -150.51606200
C        0.51489666       5.63958518       2.91185988    -152.10815779
C        2.83334822       8.24836975       2.18894061    -151.71303115
C       12.13317492       6.59393310       3.83051924    -154.77982011
C        3.19874770       1.78766232      11.51342112    -149.95553091
C        6.56552177       6.52827947       9.95877292    -154.60484917
C       10.04744733       4.85085374       2.51536965    -155.07806300
C        3.02794679       5.62972366       6.92473799    -154.08450094
C        2.49368064      11.01882303      10.53611583    -153.76316533
C        2.56383697       8.81634264       5.82857124    -151.66099160
C        8.49097586      14.35834315       1.92364667    -147.89882792
C        6.00861535       4.09999878       4.81356387    -154.59265985
C        0.28721284       0.61519721      10.79273735    -154.55088053
C       15.20112270       4.04726660       7.00626201    -151.45780344
C       13.10569214       0.13335313      11.73990316    -158.19993543
C        0.78216925      13.47155141       9.09728501    -153.46906580
C        5.15610111       4.37288705      14.35122446    -157.08104813
C       11.64942133       8.22297079       1.84221777    -153.27704594
C        2.78841646       4.57617391       5.22511591    -153.77985774
C       15.58611839       3.80405802      10.08673487    -152.87927917
C        1.53497590       5.55577810      10.32889705    -153.90764405
C       12.11843020      15.77261530       2.60984683    -153.72766400
C        2.83983272       6.21619879       3.82828375    -152.79172339
C        0.30605596       1.45761686       7.23851510    -155.44366859
C       12.02303346       4.71390226       6.65808055    -153.96024162
C        0.80428633       4.89110840       4.61763352    -153.32184579
C        6.67510832       8.43895713       2.13032640    -152.12198618
C        6.39524406       3.76047390      11.58658980    -151.50004896
C        7.43171847       1.63055972       7.87753216    -149.64238217
C       10.94205537       3.03336904       6.49328851    -157.63372030
C        0.92617441      10.89973961      11.11337948    -154.11719330
C        0.18647629       9.30726248      11.63080810    -155.67912497
C        8.87008951       3.64557608      12.38014102    -152.36372219
C        1.80037765      11.42067209       5.09144632    -152.40557798
C        4.37241141       0.44582320       6.83852102    -153.93904364
C        7.23601009      15.18782075       4.27828304    -152.65287124
C        3.19903308      12.82931587       4.21457951    -156.05489098
C        1.96824548       7.73726709      14.58219334    -155.42292941
C       14.24877245      13.56469680       5.99827819    -148.76520185
C       10.78503204       2.04049460       5.37235698    -154.73721335
C        2.67408941       1.83479785       1.57716799    -150.06388708
C        4.72596756       9.71055431       9.97427865    -156.19045946
C       14.50827949      13.41710693       2.34341136    -153.15475585
C       11.87060796       1.46688067       7.14276956    -153.20502041
C        0.22304954       9.95564957       6.07074928    -151.50574801
C       13.29304519       1.28098148       1.83289531    -154.55226211
C        7.05734532       1.72457712      14.85389252    -156.02320095
C        3.25420687       2.20452562       5.20269759    -152.89936550
C        0.55585526      12.22238839      13.76054788    -151.89242914
C       14.14077136       6.95479819       3.16396285    -153.21140178
C       15.17860926       9.98188883      12.54613801    -154.33051512
C        5.83140921      11.71030275      11.99362330    -151.59674936
C        6.97051003       3.62198453      14.53142712    -155.49108807
C        5.25959952      14.02366976      11.67280677    -155.11356270
C        7.05549034       9.95590325       0.63441449    -151.86186569
C        7.30860800      12.16998915      15.05166200    -152.42914711
C        3.84199792      15.53616075      15.46898508    -154.85739812
C        8.79273524      12.11348359      10.83665441    -152.00676251
C       11.36692521       5.55335236       3.69575569    -155.43930500
C       13.72768143       5.16364787       0.55843004    -155.43411743
C        8.65018710       5.75200969      14.37889063    -153.00303259
C       15.73369241      14.73122598      15.07885252    -153.45994597
C       10.48295558      10.88203009      13.52552025    -151.93135652
C        6.61314880      12.32017917       6.88335765    -152.38873481
C        8.76018587       1.46100180      12.87047425    -152.13225039
C       14.14383128      10.77459976       9.93537162    -152.94740458
C        9.34368035      11.59932100      14.78169096    -154.38082980
C        2.87369801      12.38643527       8.74734370    -153.55797468
C        4.94155754       0.81791647       5.78657258    -155.07463614
C        4.92053442       7.09997817      11.35681002    -152.95240736
C       10.43953000      15.63748709       2.87645670    -151.67941917
C        6.28416718       8.65996935      15.22465083    -152.17423661
C        7.60848069       5.30844735       2.40692463    -154.68182849
C       13.93136465       8.87413242       3.24646985    -156.11603418
C       15.32764190       1.91359489      11.96562419    -153.15456059
C       13.13449983       2.88075328       9.61645764    -150.70397187
C        5.26773290      15.76196105       0.78729978    -151.28340255
C        3.98188249       7.16942104       1.36350275    -155.83109716
C        3.83029728       3.86960067       0.77585756    -152.45155942
C       11.38054426       7.29830256       5.75388053    -153.96713917
C        4.07859516      14.80441051       3.28727943    -155.51059306
C        4.01993338       4.10591252      14.64102952    -153.93409779
C       15.65353188       9.75149072       8.22579289    -152.71666560
C        3.64846161       5.96954978       5.43951679    -156.14665679
C        0.41623864      15.59119185       5.81160689    -151.51018746
C        4.61711032      11.94063744       5.88469630    -156.16943836
C        6.25390087       2.39495445      15.48680558    -154.52129285
C       13.54881056       7.97167640       6.67125567    -150.36007079
C       10.23126482       9.85083524       0.46638971    -157.80601880
C        6.14857919       9.51051763      10.92731065    -152.87488408
C        2.31553908       5.86311828      14.11107581    -153.48082742
C        3.41224488      11.68078160       5.30600575    -157.18040391
C       15.24684718       1.49734516       6.23075325    -155.33631548
C       14.08437677       0.21242065       0.44415689    -154.31378786
C       13.52101756      13.45518953      11.47674958    -154.39598624
C       11.37504273       7.00252034      15.70249069    -152.52515814
C        7.24661677       6.69126409       2.41927531    -157.23382879
C       12.38282044       1.23207024      14.37671856    -152.46784219
C        9.38184222       4.86499598       4.84268865    -154.22647989
C        0.64494349       1.27934371       3.35910048    -151.14669315
C        5.25869581      14.88010007       8.98509832    -153.37040549
C        4.83274786      14.73894713      12.63416239    -155.65616505
C        0.82440415      13.41942169      15.74967378    -156.45697507
C       14.32165575       9.06674918       4.73008974    -153.27673906
C        1.52653494       1.72817610       5.83331175    -152.65532538
C       12.94432468       7.69926376       2.07424890    -156.41797755
C       14.81879058       0.31293365      15.33742415    -153.72922821
C        6.28638682       5.21517511      15.13125176    -154.21580053
C        6.80858766       0.77512508       3.00701880    -153.04492328
C        0.48494110      11.51310403       7.88723514    -151.64956113
C        9.16388992      11.79479157       3.10525350    -150.08127692
C        6.51599220       5.96885218       3.72229618    -153.14110532
C        4.03737337      13.34089418       8.79332185    -155.87145166
C        8.80594206      12.95694489      14.09186011    -155.77480717
C        7.87819805      11.78006270      13.25716637    -152.90720791
C        3.27023580       7.29898430       9.04044650    -157.65839712
C       10.09439261      12.61063426       9.24939343    -152.87908305
C       11.27344687       8.89716906      10.06471292    -149.40681531
C       13.00499998       9.15309298       2.57487172    -155.39204813
C       12.81766279      10.59243114       5.28682176    -155.06153126
C        0.81272570       6.73039309      12.56741480    -151.65192422
C       11.69522508      10.29989911       3.55921642    -153.40750369
C       10.08400789       4.79063821      15.68994975    -152.28445153
C       11.48770507       5.07789069      12.84461550    -152.27574276
C        9.04919820       4.75176289      13.33374378    -157.24323877
C       15.33376175      13.52139807      10.41387736    -154.29377228
C        1.29597036      12.38342291       0.57081402    -153.95075633
C       13.57917199      13.54430787       1.05357987    -153.23572721
C        0.83081889      13.69536989      11.53357224    -153.22517330
C        9.90616757      10.41830078       1.41545331    -153.78811353
C       11.18591398       3.65779993       5.02750497    -154.06365967
C        1.78992951       3.68551366       7.91076327    -153.64586200
C       13.41185908       4.53767909      14.52506945    -152.81946258
C        1.73619849       5.52782656       8.08579734    -154.90033244
C       13.05972984       4.51541933       1.51200585    -153.09609711
C       10.21989712       9.20856800       1.72446614    -155.10184026
C       14.33854084      12.88913504      13.18750154    -151.73125239
C        7.97353138       6.33854824      10.15538501    -154.26630992
C       15.18614017       9.55346757      10.86546210    -154.81475412
C        7.26115538      14.71286642      10.86443156    -153.34000258
C        9.59229532       8.96862545      15.30241733    -152.46743898
C        3.36106644      11.11597962       0.48170043    -150.13582910
C        2.86948070      15.66255311       3.05256888    -153.59138930
C        4.68384206      11.16977406      10.22812562    -153.47274507
C       13.33314131      10.26825345      12.93419363    -152.31924215
C        0.89681340       3.92361707       9.74670265    -157.26315915
C       12.85653811      14.87535956      12.24098576    -155.21374580
C       13.50660578       1.09747316      15.51834025    -161.59191943
C        5.40964685      10.52958376       3.78625338    -153.12554842
C        5.36287597      11.44480269      10.95240838    -156.34085165
C        2.79832555       6.34129107       9.83991146    -155.77299366
C       12.03611345       6.99722492       2.11372670    -154.55433315
C        5.33004122      10.62350603       2.42168520    -157.53832552
C        8.78539459      11.25649837       6.92638686    -152.51816552
C       11.54245078       8.98156276      12.75985715    -149.59069026
C        3.43436196       7.16376097      13.90835972    -155.07729637
C        2.29421473       4.57013333       9.70384784    -155.41330523
C        5.36850433      12.73843768       5.66606225    -154.23503554
C        4.59689578       6.85840261       9.18269339    -152.52119093
C       10.69749915      13.05590890       6.27524108    -151.87815059
C        8.88827467       1.49166765       3.90923701    -151.47813832
C       14.96972576       0.14889549       6.77730666    -154.99366387
C       13.15634738       6.58473747       1.56589700    -154.03343064
C       11.58492508       2.50565082       7.44356181    -154.92470959
C        5.05255514      11.79450619       1.76559280    -154.89845409
C        8.50075811       2.57734503       0.23592817    -151.43908130
C        6.79555523       0.01093307      14.75293083    -153.31548242
C        7.19592982       2.93919310       5.43469701    -152.45596527
C       13.01251503       1.48310778       5.49599065    -153.87314450
C        1.57706176      13.89898969       7.32733221    -152.33891445
C       15.74152455       1.71056171       9.07623019    -153.29148681
C        2.64674033      13.77031428       3.47066884    -155.27618380
C       12.68990694       0.20107515      15.66359951    -152.02302309
C       11.62544927       6.19850513       6.99548092    -155.87576715
C       10.52776049       3.53468946       2.93873332    -154.05998882
C        4.97375810      14.95039908      14.30237664    -154.95631366
C       11.60729583      11.53813834       7.46250798    -152.91253835
C        3.47942055       5.92525220       1.64107128    -154.51075306
C        4.29797437      13.35481446       2.44469013    -153.77041960
C        3.56963285       8.52829743       9.54365361    -154.18866171
C        9.36849270      12.86885709      10.28895948    -156.53919393
C       12.71245209       5.66533294       3.36778876    -153.51565313
C        1.08235586       7.10181730       5.34873372    -152.63350026
C        4.96300872      15.32569179      10.38036087    -155.29426674
C        8.29466500      10.50356647       6.32649879    -153.15343852
C       13.49192448       0.84560642      10.73750015    -152.88468279
C        5.09810522       3.67260806       3.21541082    -151.47854245
C        3.76649862      14.25481303      10.07382928    -154.41043520
C        8.59038380       3.98153369      13.96435794    -154.41838662
C        2.10733732       8.36439324      13.00454020    -153.39176449
C       14.83523173       1.95954134       3.29162357    -153.03740706
C        1.16320448       8.59058991       4.21787725    -153.58112269
C        7.85256127      14.15304277      12.86876196    -152.12161620
C       12.48127711      11.78401048       5.75960401    -154.41944324
C       14.51993258       5.38649923       1.49270929    -153.21639376
C       11.94510842       1.02232583       2.98892878    -156.71159073
C        0.63412594      15.22333491      10.02721695    -153.99834281
C       10.04034450       6.10667565       6.29666056    -152.68114870
C       10.23407107       6.60771069       4.00265193    -153.06818194
C       11.61435110       1.11650970       4.04880449    -153.29578639
200
Lattice="15.854535682762254 0.0 0.0 0.0 15.854535682762254 0.0 0.0 0.0 15.854535682762254" Properties=species:S:1:pos:R:3:gap17_energy:R:1 anneal_T=2400 density=1.0 run_id=105 time=1 pbc="T T T"
C       11.49019423       9.32494029      14.99060618    -156.67859073
C        1.83169036      10.67400273       4.65895044    -156.90470442
C        1.18501715      10.01559557       3.10439736    -156.01073631
C        9.12512558      10.53170827       2.85713002    -155.33286750
C        9.99276504       8.81978307      13.26937437    -155.38925624
C        0.79633211      12.93263988      10.74975570    -156.11791260
C        9.22272610      11.31717368       5.35127045    -154.85474056
C        8.06214238      10.73126931       8.86227323    -156.47776392
C       10.87879577       2.18342324       1.93588637    -156.25617770
C       14.55688950       6.60975593       3.65646815    -154.70434029
C        8.00709543      13.28714730      10.62084247    -155.48176138
C       11.46278174       4.13259571       3.49139072    -155.26786097
C        1.95939865       4.92180278       8.42709793    -155.79090234
C       15.67568067       9.19014503       5.97397319    -155.53090477
C        2.94634349       5.37146913       0.56225733    -155.39076343
C        0.99043126       5.53290001      13.46492421    -156.74121788
C        5.98697391       6.27126159       5.92444362    -155.25721382
C       13.34565054       7.43240022       2.74610071    -154.42395570
C        8.48388888       7.66238611      14.74354495    -155.89284012
C       12.08824317       2.03957503      11.94039962    -155.71104973
C        1.94917247       5.88913557       7.57895955    -155.48587120
C       11.35134020       9.50747356       3.71666782    -155.43726887
C       14.76142887      13.46413148      12.56652695    -154.32940904
C       13.45721891       4.36511833       4.71526575    -153.31558360
C       12.69621705      10.57965239       4.06594324    -157.75497796
C       11.30331682       8.11330496      11.95634929    -155.78616993
C        4.44805340       5.26134352      14.47070424    -153.43751862
C       14.41546704       7.83218819      11.57422327    -154.54616311
C        6.82837412      11.79368175       4.79304810    -154.90494464
C        7.31390342       2.74384936       0.81291595    -156.77580853
C        1.77236269       6.19932956       1.38210171    -155.13709673
C       10.95797332       0.92120560      12.27925861    -157.77827572
C       10.46805231       3.34984143       2.99710972    -157.42790236
C        7.93725620      13.94829729      15.21597840    -157.82671223
C        4.80519267      11.78951201      12.12879907    -153.07315075
C        5.34448471      15.01930289       2.40727343    -156.62854673
C        6.29837285       1.60579494       3.17525128    -152.35015360
C       13.27154644      10.99244108       9.72672593    -154.07666448
C        5.50861086      12.53706922       9.58056297    -156.63425946
C        8.65099569       1.57355474       5.32446043    -153.72447601
C       11.11288799       8.60690422      14.04030116    -156.51495237
C        8.14537869      15.00587410      -0.02641112    -153.39925614
C       14.03540211       0.70196274      12.51453992    -154.51451537
C       11.43931702       7.46104937       7.18541826    -155.79091565
C        6.37648814       2.50351046       0.27906678    -154.39457351
C        3.49922286       4.46552510       1.24949279    -156.86080308
C        2.99925008       4.49693294      13.07174758    -156.52216453
C       11.08807564       4.26331635       7.01683698    -156.48617460
C        2.61788508      13.90346067       7.92863133    -156.73066923
C        8.52534849       5.61496308       7.30535782    -155.25526732
C       12.65639045       9.00531285       3.27042606    -155.60597177
C        9.01820259       3.37368665       4.36166204    -153.70889520
C        3.79218297      13.39993647       8.06382296    -156.20016013
C        1.72234163      10.40599766      15.36188770    -154.13965865
C        6.94820270       6.37257207       7.27303043    -156.23550678
C       12.12275849       3.71742884       4.55113959    -158.29334285
C       12.56575007       9.88750678      15.58551592    -156.18028527
C        5.93194282       7.07603782       8.53901510    -154.14847161
C        6.02841767      14.07090042       2.14960551    -156.09512227
C       12.97397266       2.39268725       0.26274929    -155.53853205
C       11.09505163       4.88798506       9.96088157    -156.45972755
C        8.14571163      12.72090256       9.51660577    -155.14131624
C       10.90310077       2.21337245      13.07095485    -153.63694831
C        5.17442896       0.59621457       2.76301750    -158.30477293
C       11.25884484      14.59189632       3.49337254    -155.72990237
C        3.77073179      11.84796768      10.31112412    -154.04712127
C        7.21027817      10.52711046       9.88243333    -155.91295214
C       15.63631385       0.13062631      12.68576891    -157.05777041
C        1.40481650      15.33929498       5.35396572    -154.27837439
C        2.38908827       7.35883517       8.15080094    -156.70544931
C        9.84560324      11.61660244       2.33641951    -153.67743086
C        2.40289757       0.18878947       0.80686903    -154.43818659
C       15.39454804       1.37220531      15.60152900    -156.70795236
C        8.74312639       7.18126437       7.05184380    -154.68338828
C        8.95897004       2.14928842       6.32908308    -157.36780783
C       15.24445315      13.92063113       0.35793992    -157.40138902
C        2.03190144       4.41942011       4.17651277    -157.06999196
C       15.52864570      14.83702329      15.27061313    -154.35006382
C        3.74482547       5.00058397       5.65794473    -156.62059673
C        1.37160918       8.28478762       8.71755303    -153.19286693
C       15.60699882       8.12188227       5.21905947    -156.47203841
C        4.09755718       4.60333273       2.22684881    -152.99381814
C       13.37702666      13.07345987      10.41105526    -154.19946261
C        7.66855353      13.75111443       8.99266093    -154.30514233
C        0.77887151       3.91811555       3.67240195    -153.18842856
C        7.08233207      10.34031232       6.54348397    -156.51013074
C       15.64952068       6.00346263       7.36406717    -155.43973604
C       14.51776051      10.01591266       6.02833839    -156.20616504
C        0.70515267      11.51598956       0.11977563    -156.29365993
C       11.42246365       4.08041843       5.90151796    -155.12817361
C        3.23962069       4.21215377       9.05064097    -154.50742236
C       13.52647152      10.58627958       5.30754364    -156.03641636
C        6.51282129      13.87712628       9.37362957    -156.76531635
C        0.22047476      12.46867275       2.01809214    -153.18567749
C        7.14977727       8.41577779       0.91670133    -154.61911878
C        9.48396128       5.75854176       0.60688467    -156.81022880
C        6.56544250      12.67915757       2.37415330    -155.11143816
C        0.16615236      15.61904826       5.78256138    -154.99719013
C       14.26134510       2.11109484      15.35941439    -156.18709950
C        0.96236397       6.47645099      14.38095172    -156.47983885
C        4.80373406      12.42061765       8.43879858    -156.54751806
C        5.53462815       2.40822470      14.57987858    -156.24398132
C        0.43729029      10.89869321      14.42407606    -155.85959878
C        5.48554251      11.77822358       5.01325175    -154.64391808
C       13.62640266      13.51318542      11.44473927    -156.10206480
C       10.39234690       1.09213652       1.20997377    -155.19759515
C       10.11849151       3.34348376       7.91244385    -157.11625884
C       10.83313470      15.10591622      10.88380580    -156.67344075
C        3.95751407       0.65675036       1.89672567    -156.67948144
C        5.92281060       0.61135407      12.54301467    -155.97761805
C        1.87305485      10.93435006       6.02879818    -154.44895129
C       10.83915943       6.23685725      10.37899738    -156.43314167
C        4.34945405       7.72930811       3.16085536    -154.60004099
C        7.25909429      14.13612598      11.59683183    -156.13302728
C        5.50919748      12.39857985      11.11991155    -157.06297654
C        0.56154704      13.19008583       0.91918098    -156.40367858
C        3.82628608       5.69418820       8.77169627    -155.34960791
C       12.88158828       0.87663216      11.64360271    -156.67293068
C       15.03098768      11.51583101      15.42197639    -154.61946006
C       13.82440995      12.91012644       7.43103673    -153.67248946
C        6.02380400       9.50278062       7.02904498    -153.36766947
C        0.91817421       8.63598144       3.48615872    -155.61683144
C        4.25069614       4.52824565      12.83358074    -155.96635433
C       10.89945423       6.80695464      11.46405010    -156.48585720
C       10.47574176       6.59998953       0.79013615    -154.23355180
C        2.81013718       1.44299898       1.22387027    -155.47324572
C       14.06530377       9.85175480       9.92186356    -155.88234308
C        9.19961018      14.48028038      12.71601936    -155.57280934
C        0.33844360      13.57054713       9.59730536    -154.39412796
C       15.38619270      13.03723226      14.74200706    -154.27343362
C        2.54230651       5.29720648       4.94536262    -156.20777877
C        8.02383782       7.33759010       0.65226828    -157.49996507
C        6.71277870       5.82018419      13.97179372    -155.98379488
C        8.07807618      15.29892933      12.32923211    -155.60284094
C        8.86398552       5.84829429      14.94995515    -156.31401311
C        0.41459928       0.44089878      13.68268626    -156.40636726
C        9.96654164       7.51864889      15.32264772    -155.37603381
C        1.38539945      13.83406536      11.84289423    -155.50719463
C       14.84659943       5.90093134       4.85727482    -156.54853708
C        8.15225956      10.67829931       1.98969666    -156.79813668
C        0.88181659      11.46994799       3.42275644    -155.18398275
C       10.38797105      12.24968990       5.40444656    -154.77444326
C        5.43038458       5.50796082      13.94220915    -157.17759238
C        5.92810602      12.02116263       3.46657837    -157.76660306
C        2.64553539       6.92916140       2.44835253    -156.07804192
C       13.81862305       9.38667785       0.48699109    -152.23493459
C       13.13551452       8.28553278      11.44383556    -156.72133485
C       10.62399752      15.50264426      12.27898909    -156.52943778
C        8.64004020      14.58764730      14.32206797    -156.21386758
C       12.24274562       7.62584141       6.32166316    -154.54117534
C        1.33661505      14.41713177       8.27628959    -157.24480498
C        8.56270178       6.59672350       1.44465261    -154.55281547
C        4.81449929       5.45589453       6.04633329    -157.09100556
C        4.12869549      11.27561894       9.31740938    -155.10577516
C        0.02394907       6.06642099      15.51486811    -153.30253098
C        4.65760280      13.72343241      10.96678844    -153.24272585
C        4.82531208       9.39994810      10.67227459    -155.52018345
C       10.05960776      14.37786008       2.17857175    -154.84785977
C        6.09675072       9.81494057      10.68413378    -155.56235775
C        3.59958207       7.07491215       9.29042496    -157.03964333
C        0.50547906      15.76083538       0.48615238    -155.18091422
C        0.66879822       1.13719035      14.70876010    -155.35241588
C        8.65606914       7.97811334      13.11116196    -154.35512199
C       10.05570755      13.67290401       3.24632716    -155.87023509
C       11.69801548       1.47930904       0.36257738    -155.99875492
C        9.93644973       6.32657806       7.62027647    -154.58673237
C        6.58056773      15.70263338      11.67832415    -156.60440377
C       14.03939746       9.46858238      11.32976218    -156.95790382
C       11.42720416       3.80803751       8.31135982    -157.32733437
C       11.68403178      14.15673687      10.39507388    -154.03321091
C       15.04774593       5.47038557       5.98139311    -156.10425816
C        7.62737930      11.26818316      15.83213322    -156.26303686
C        0.08988808      14.31642376       1.27779155    -154.70633197
C        8.26319374      11.64258802       7.67847847    -154.96490986
C        4.38048137       3.06946982      13.49588812    -155.61651895
C        3.81376099       2.75940266      14.96084722    -153.08463637
C       12.78213278      13.89255275       7.38994177    -156.43482118
C       12.13087601       4.65235495       9.18088598    -155.17956049
C        7.40616096      10.00792198       0.96807161    -157.19240190
C        7.76856394      12.41278551      15.55670823    -156.08486866
C        0.86504408      15.35844726       7.17493841    -156.13439750
C        5.58043191       1.16890735      13.55542190    -155.57427919
C        8.30982193      10.50060167       6.41331823    -156.62673777
C        5.49320025       8.09355021       9.49182513    -156.33344111
C        8.90446215       3.84393218       3.03627042    -157.75494869
C       10.81092250      14.94478657       8.74851694    -154.23361469
C        2.97824282       7.95076426       3.14891690    -156.59944170
C       11.51031363      10.73615251       4.60414131    -155.16836043
C        7.73014840       5.31198291      14.19103024    -155.59291795
C       15.10799316       7.05130474       6.93875340    -154.75312071
C        9.19265004       2.49006581       7.75467537    -155.40608050
C       11.88899922      15.12616246       8.08657422    -156.12025220
C        8.30582659       3.23294593       1.88909964    -155.02240335
C        2.05436732       5.16068307      12.85349404    -156.36306736
C        4.12268662       8.28597671       9.86868744    -156.77265179
C        6.29296645      14.64513585      10.37893397    -155.50907277
C        0.63365981       7.68730944       4.12677709    -155.21019074
C       11.99722228       1.62680220       9.11940209    -153.71363764
C       11.71161867       0.47953946       9.69641206    -156.15656741
C        0.28797227      14.72957710      12.15292967    -156.79446912
200
Lattice="15.854535682762254 0.0 0.0 0.0 15.854535682762254 0.0 0.0 0.0 15.854535682762254" Properties=species:S:1:pos:R:3:gap17_energy:R:1 anneal_T=2400 density=1.0 run_id=105 time=2 pbc="T T T"
C        8.54557888      13.15691815      15.58429512    -155.46182932
C        8.80949348       9.78916109       1.42329021    -155.77968553
C       14.84747143       0.67793995       8.20878098    -154.94015174
C        3.27992292       4.09804867       7.03927115    -158.46894358
C        6.98925009       9.86935334      11.05008817    -154.70587740
C       10.95908314       2.52619830       5.70997932    -157.22787459
C       12.21427087       9.98146076      10.78509546    -155.65635021
C        2.41870455       3.37880766       5.89723724    -155.60301596
C       12.07644739      13.26290572       9.78847935    -154.79289316
C       12.58136679       6.33650300       6.94584037    -153.50631163
C       11.77847725      11.45552036       7.50618723    -153.93671708
C       12.73709004       1.07668945      12.22159567    -157.89691437
C       13.46210210       5.64822590       5.37830243    -153.52916096
C       11.57108407       1.71409727      15.40772316    -156.89300421