200
Lattice="10.442332386506106 0.0 0.0 0.0 10.442332386506106 0.0 0.0 0.0 10.442332386506106" Properties=species:S:1:pos:R:3:gap17_energy:R:1 anneal_T=3100 density=3.5 run_id=312 time=0 pbc="T T T"
C        1.13101946       7.70894746       1.45586998    -149.92725291
C       10.08150803       3.08631488       5.11804816    -153.99094107
C        1.18616542       7.16019245       5.71898351    -149.63578797
C        8.62987764       5.77448450       7.93865789    -154.66025855
C        8.94830612       4.00797602       3.79055621    -152.74933209
C        1.83485355       5.43791769       9.77530752    -150.66522162
C        1.87263391       2.46034926       5.54340613    -154.79052650
C        2.66824566       6.55034980       8.91120452    -153.88788108
C        9.02743812       5.75225278       0.29773700    -153.44092749
C        3.21976788       2.04231137       7.47652203    -155.31512538
C        0.34871229       0.66378357       0.05172818    -154.69704674
C        7.93336363       4.37737352       9.25383833    -153.39694139
C        6.91181113       4.04160033       3.20059576    -153.56698748
C        6.42403935       5.98195276       9.64669975    -152.55818069
C        9.19041160       3.62672646       2.17038657    -155.10547310
C        4.62321736       6.90794747       0.12244470    -150.66142857
C        7.05456826       0.64338656       2.34759296    -152.64399920
C        9.99101478       5.54713404       2.20365585    -152.93314287
C        9.16219642       4.42866626       7.06258797    -155.65504978
C        7.24959970       4.17754905       5.03064584    -152.95846607
C        2.58347480       8.82871009       9.94232218    -155.07249103
C        5.54549459       5.10335580       5.33236659    -153.76186114
C        7.86052836       3.76921209       7.38797105    -153.23135176
C        2.39628555       7.66700061       1.29381543    -142.82344922
C        3.57183112       7.27704215       1.40358522    -136.00939907
C        7.36391191      10.14006863       3.79319812    -153.11448501
C        7.99416933       9.26313200       8.93770716    -154.49616352
C        0.29170342       2.63536275      10.11097630    -150.14417559
C        3.95195290       0.82751621       4.96527684    -154.86052821
C        2.67037589       8.55324136       1.98432510    -151.15242065
C        6.92106304       9.94048433       2.82730326    -152.97622203
C        6.77711549       6.39362083       0.94293739    -153.47089156
C        8.45157481       1.48039902       7.88885841    -153.68240852
C        5.59664114       1.71629131       3.98379157    -155.46930159
C        8.85209047       3.53132531       9.31475889    -156.26884896
C        6.60258234       2.41895586       5.50119822    -153.93635955
C        6.52748109       2.60143561       6.73769568    -155.46151282
C       10.10073237       1.09754135       4.94280494    -155.13074432
C        5.86972902       2.53947081       0.77160378    -154.61367045
C        3.71104830       5.70975248       0.59561289    -153.77492984
C        5.78579355       2.76109888       3.03975252    -154.95265390
C        5.64640930       7.54293526       8.22460028    -151.81036644
C        5.70734030       4.44694034       2.79129810    -154.65172761
C        2.23743679       1.45826128       1.99723182    -137.14734224
C        0.30311480       9.16806501       5.22959316    -153.83693631
C        2.35764892       1.35069481       5.42366390    -153.46911024
C        1.40885860       5.18126604       5.36102035    -155.13500574
C        7.68789572      10.40706863       9.18817694    -154.52247680
C        3.88119566       9.64494544       4.39727661    -153.33188946
C        6.09351864       8.21785453       4.82251971    -155.66669711
C        4.62347841       9.67072756       9.54288209    -154.03713286
C        9.55762666       0.49602958      10.35660084    -153.02574066
C        2.17678772       9.91366842       5.63151853    -154.05834208
C       10.11477730       3.14334045       9.37112660    -152.55358531
C        1.93125716       1.38989533       1.41275359    -139.38412503
C       10.22803484       2.83604350       3.25694259    -154.62294527
C        1.69809032       5.19379684       1.40925541    -148.82179365
C        7.74802267       8.17577193       1.27083185    -139.73836223
C        5.59973207       7.23643192       9.43961786    -152.88087911
C       10.10776006       8.74656026       6.25493621    -153.34237445
C        3.35280320       5.52033902       4.20051174    -154.05521397
C        5.36917581       9.20658677       5.25642995    -151.36560890
C        4.94253344       8.40239143       3.76628823    -154.13137419
C        7.18415760       8.07582837       8.71023139    -152.42841045
C        2.32130960       4.32523496       8.73547050    -150.77961692
C       10.22783644       8.07919080       4.85972574    -146.53366468
C        2.50114745       2.41203259       8.19485007    -151.58218053
C        1.03237806       3.16222019       0.10512192    -150.29942679
C        9.93520051       1.17450134       2.58092687    -153.09338364
C        2.03742436       5.61909215       2.52218875    -152.55974348
C        4.14638913       9.80128804       2.07551799    -150.40246291
C        2.94427827       3.70547209       7.40569169    -154.25640800
C        8.29617202       6.25516595       8.86635470    -152.10433947
C        4.83086314       6.01226685       8.18690346    -150.76689876
C        6.11842360       6.47113426       8.06692106    -154.08033448
C        3.29200794       0.09098519       1.80850755    -151.02464326
C        0.93731211       4.14282830       8.84498969    -142.53265057
C        2.69509289       9.17315042       2.85006755    -147.78890889
C        8.30975750       0.84270875       9.58231233    -152.33808936
C        2.69786011       6.85121428       4.81619166    -154.13269291
C        5.38475577       0.50660662       3.11173151    -154.98363716
C       10.26408177       8.91434766       7.33062176    -150.00354246
C        0.32956628       9.34531316       2.22065596    -154.67409832
C       10.40605572       5.62806212       8.82892938    -153.23010386
C        7.61557212       2.72961524       0.04244933    -152.66271555
C        7.79380185       4.30459047       1.53193193     -98.35079868
C        8.59091730       2.89333013       3.24338844    -153.99430435
C        1.58990776       0.90183951       3.84354061    -149.33197812
C        1.71382692       2.36113666       6.80380609    -154.83081353
C        4.31869806       8.49856531       2.72800712    -153.16845644
C        4.86109369       1.47643093       0.00133413    -153.82173704
C        2.60040182      10.17427771       2.79848243    -149.17566944
C        1.14040712       9.70783961       4.54900370    -154.41223868
C        6.63830556       4.99006694       6.42589808    -154.50040944
C        0.18772494       7.52158069       5.40974427    -143.27013485
C        9.37010325       3.07181048       5.94233455    -153.47445138
C        8.87811276       8.40678765       5.01232999    -152.89531363
C        9.26147167       9.23340268       2.60223967    -155.39864716
C        7.95172125       2.09446038       9.46050253    -153.86657034
C        0.71847006       0.84521074       3.46283405    -148.82508476
C        2.25194119       1.24203190       9.65050076    -152.87429941
C        1.46202052       8.18592188       7.79312310    -154.95428557
C        6.34846819       7.20571058       2.02949863    -154.95939685
C        8.42918645       8.66538157      10.20467534    -155.63450127
C        7.23924091       0.33924214       7.15692400    -152.28751123
C        9.17647109       2.42033424       0.33996579    -154.93315358
C        0.43101040       3.00510486       2.09512869    -153.42934406
C        3.04497368       8.72112274       8.06192962    -155.71216206
C        1.97668131      10.13557843       0.08469369    -154.33006701
C        8.26744517      10.14562395       2.76425246    -154.86401192
C        5.81567950       3.37005393       7.82158890    -154.10470873
C        2.93731323       3.85319977       3.77617712    -154.81479443
C        5.26129608       1.35363955       6.03209684    -154.24426623
C        4.44544709       0.22440363       8.28549996    -155.39942498
C        3.92759094      10.12786155       1.18269857    -146.92073875
C        3.78382091       8.98031187       6.80201001    -154.12106906
C        2.29583031       7.49980843       5.71322978    -151.42375341
C        0.78549417       4.98133715      10.09168931    -153.03213493
C        7.91357541       7.55155018       1.66912329    -142.92359223
C        0.62109636       5.89648227       2.64084498    -153.84256481
C        1.47266125       4.26490960       9.43885557    -144.09200172
C        0.72211026       5.60116267       6.35431589    -151.32403630
C        0.35359304       1.46891245       1.25588887    -154.93200769
C        1.86205583       6.82763549       4.09505463    -152.44682349
C       10.27824158       5.95360183       0.45367548    -154.01092494
C        1.93162264       6.02250034       0.17989319    -149.35960889
C        4.42896909       7.51195286       4.85391981    -119.06626738
C        4.10774206       4.23906483      10.05054652    -154.26168078
C        6.57500414       6.80551863       6.39160546    -153.14210086
C        5.39687932       1.72385156       8.10739554    -154.23030543
C        4.51797953       1.60614559       1.12016988    -153.73445606
C        2.47466570       7.57107735       8.19773216    -157.00030718
C        3.01894095       1.60555037       0.03747189    -154.36765823
C        3.02948770       0.34763673      10.33242684    -155.22651152
C        1.43795094       7.14326543       2.36289097    -153.85606846
C        0.71073960       2.03958592       5.09940860    -156.41841977
C        6.47089409       0.42144209      10.06100973    -153.64884986
C        4.79264420       7.81423750       0.21287948    -148.93567276
C        0.18663267       6.59057366       4.54311422    -152.33193732
C        3.66914322       2.44108316       4.40382395    -154.13485837
C        9.61637522       3.64396675      10.34990730    -154.11525278
C       10.39259556       0.47114759       8.24301011    -152.65594352
C        9.03498792       7.39453928       2.94371438    -154.98407749
C        5.08997917       3.15785529       0.24722431    -153.77845749
C       10.42570819       7.45028045       6.94471492    -153.93176916
C        9.80895272       5.31777865       4.44544709    -154.32007053
C        3.01149556       5.33948826       5.62111797    -155.11160899
C        8.08121661       6.61203266       3.66523778    -153.39798913
C        2.15947434       5.93196532       7.01139966    -151.66428071
C        6.69027705       2.44031042       2.46245861    -152.47791179
C        0.07740243       7.55709506       3.38212527    -153.52110667
C        5.68809509       6.76833349       4.43344885    -153.25450413
C        5.58450715       6.49739673       2.56835430    -151.02310256
C       10.26722491       4.53382055       1.02542347    -152.27664501
C        7.98358080       2.78537730       4.60826394    -150.72155511
C        1.65762629       4.39443630       4.36080154    -154.11245282
C        4.55188578       2.55144817       7.88019127    -156.29506917
C        5.41776399       4.20198411       5.88818062    -152.23604400
C        8.02265601       0.61899536       4.21795044    -153.49309863
C        9.55481767       3.38675122       7.95138709    -153.86546368
C        7.60875328       5.85486958       7.16294923    -154.33424252
C        2.70173422       6.72071645       2.10440148    -151.39927947
C        4.69378664       4.19266955       4.34217242    -154.11581000
C        6.83727377       3.56470945       0.16058636    -153.85531568
C        8.29416709       7.05208298       6.06959526    -145.26856748
C        9.83289698       6.40000110       6.92507290    -152.38590034
C        6.90955559       1.33270267       6.82902432    -155.41938130
C        9.27657128       9.27307310       4.40906600    -153.63664693
C        9.61296058       7.75969720       9.62931327    -153.58712150
C        9.32892914      10.44129860       5.09965921    -156.74320076
C        6.99050455       7.72056978       0.04180389    -144.59184745
C        6.98848918       8.68146276       1.49594765    -148.82677486
C        8.99613200       2.46567485       1.55495727    -152.63160339
C        4.53499009       5.81719364       3.97055070    -154.63403249
C        7.15476244       7.46921239       7.79707030    -152.41403867
C        7.26456356       7.29746735       4.99379485    -154.26270403
C        6.02286582       7.87440622       7.20422777    -150.59139808
C        7.99373075       4.47914450       1.42444900     -97.99602630
C        7.98334063       7.76457377       5.83754575    -145.94466817
C        4.75721337       4.11354800       2.33687912    -151.67798696
C        4.36303620       7.88914035       4.57379380    -118.53685205
C        7.14204368       8.46615231       4.14161699    -152.84341639
C        0.57076014       1.84552561       3.07654085    -154.69512389
C        8.73324629       1.29742847      10.42325425    -152.34795363
C        4.66467342       6.57778181       2.97087489    -151.54238442
C        3.16738914       0.92081844       7.28778731    -151.87311766
C        0.82667142       5.08241892       1.29690636    -148.04454827
C        8.92575068       0.87631114       6.21289538    -153.97946600
C        1.64806111       9.33245865       1.83959437    -154.31076138
C        2.45831301       4.97447653       6.86281571    -153.85695435
C        3.20744593       7.77262480       1.08898908    -128.45920026
C        6.37958634       7.47703370      10.04191071    -141.85162527
C        7.96629874       6.08746209       2.78986750    -151.80866402
C        5.74619622       8.70184619       2.75751716    -153.54362642
C        6.56860300       9.95082224       9.11850570    -153.87883486
C        7.49954737       5.32014906       3.48010567    -153.22034475
C        7.44918400       3.43339712       3.94433000    -151.94826602
C        2.23468002       4.26628799       0.42372165    -152.19174683
C        1.63261690       8.39695097       6.24226967    -154.62353047
C        0.29204384       6.50821499       5.88038019    -149.14649031
200
Lattice="10.442332386506106 0.0 0.0 0.0 10.442332386506106 0.0 0.0 0.0 10.442332386506106" Properties=species:S:1:pos:R:3:gap17_energy:R:1 anneal_T=3100 density=3.5 run_id=312 time=1 pbc="T T T"
C        7.18338487       6.34300685       5.01275812    -155.83499767
C        1.97437355       8.31164756       9.40262068    -154.61560512
C       10.06087398       6.65250714       5.39798621    -155.44307922
C        3.69265935       2.36144993       7.58057987    -156.56345874
C        8.34240023       2.58775616       2.39763261    -156.82972426
C        8.49834602       7.12429171       6.48652626    -155.16486967
C        3.02432919       4.44604230       2.57237460    -155.30389508
C        1.79622736       6.43254985       4.10284461    -156.72695308
C        1.74423499       4.85172692      10.37000879    -154.94592682
C        4.69837082       7.50599029       7.27652003    -156.77636820
C        6.55496531       0.35123098       1.73557830    -155.76511965
C        7.54132714       1.33494777       2.98197509    -155.11744628
C        8.70999121       7.33170776       2.49866218    -155.48889980
C        0.94746519       0.61739246       1.94975053    -155.93159018
C        7.35414833       3.53932414       8.12983611    -155.61346833
C        2.99275158       8.34345490       1.61137720    -154.39998888
C        8.41237430       5.67228539       6.75751523    -155.85491923
C        0.40532018       7.49105775       6.06415480    -154.92864055
C        5.73819740       0.77395853       9.10723842    -155.68955583
C        7.70780925       1.52822490       4.31760161    -156.70782377
C        7.91102748       7.14970835       9.73660824    -155.30684445
C        8.78187623       4.57614332       5.81999219    -155.99282345
C        9.05818034       2.85191584       3.75577280    -156.12434951
C        0.86984002       5.04110906       1.91734798    -157.17655521
C        6.85118295       9.52204963       2.19385050    -156.39483949
C        7.74957858       9.36850558       0.67288928    -155.46563580
C        8.53451826       7.35219562       1.22751706    -154.84172502
C        5.38882828       8.30741841       0.95936527    -155.99692242
C        9.27433662       7.96134908       9.08334637    -155.35564266
C        5.92858200       7.33256403       6.75313989    -156.06989767
C        6.64818401       5.54374028       8.75596880    -154.67652944
C        0.82565434       1.69510382       8.71333276    -155.89948390
C        6.47695064       9.54626540       8.67567771    -154.59864710
C        5.38419189       1.33286975       5.12054388    -155.52512910
C        1.07822303       9.37156518       8.36291941    -155.74754307
C       10.16543306       6.31220197       3.38919473    -155.08773546
C        1.21870373       1.80027899       7.30943427    -156.75893987
C        7.54113918       9.35615230       3.30045579    -154.30190049
C        8.69349233       1.97565796       1.25763274    -155.57045107
C        0.43353118       9.69094392       4.87678851    -155.87869102
C        1.49979043       2.39848888       2.75042681    -155.78930943
C        6.80002597       4.91430781       0.28426222    -156.40195437
C        6.01944073       7.87504320       3.02587466    -154.52018108
C       -0.15219699       2.75010310       5.24363809    -155.84092251
C        7.88365812      10.01647319       8.16630073    -151.99489734
C        4.59404148       2.90606978       5.70000979    -153.99140951
C        9.13256108       0.40173115       6.23470942    -156.36103657
C        5.79715481       2.28139901       5.60470262    -155.66152568
C        3.28004103       1.24829730       0.78533231    -156.75091197
C        2.08253523       0.06747647       2.69462299    -155.90449792
C        9.81764074       6.31279718       7.38477569    -156.17850035
C        7.23529371       7.34517837       1.42244408    -155.28989454
C        0.56625740       5.45178510       0.11711598    -157.49154436
C        0.06176473       0.55084556       9.31497818    -156.28610556
C        9.65448973       9.33307474       3.05119731    -154.87206619
C        2.86625316       6.38403477       1.26970408    -153.98969147
C        6.85636235       8.42922822       0.96790397    -156.50367968
C        8.11555100       9.73269236       5.49441070    -154.48304007
C        5.22716009       8.19728314      10.03300340    -154.60783180
C        9.83460953       1.54150755      10.20696221    -156.18307473
C        7.54259066       2.36624296       7.43522260    -155.93474072
C        7.19856802       2.56320623       5.01717523    -156.12352763
C        3.87624599       7.01693409       5.54073289    -154.13092771
C        3.85597743       7.42053024       0.66862776    -156.54346593
C        4.11837235       5.15198574      10.32159814    -155.47055928
C        5.01737363       2.85074630       7.97799415    -155.08625288
C        5.38353402       1.08467639      10.40162817    -156.60107890
C        0.21620327       8.46864803       2.20087819    -155.55984871
C        0.61052349      10.00544608       9.53552024    -156.70912640
C       10.26853021       1.92344630       6.41739802    -155.91583893
C        0.07733205       5.99273969       9.35623584    -155.49870684
C        5.43690478       0.28402204       1.06586975    -156.44511836
C        9.73076053       7.60798055       7.67291097    -155.91949443
C        7.20135613       2.52266910       9.02954747    -155.57976626
C        9.02871208       2.40610134       6.86073769    -155.29377178
C       10.39960236       4.29489998       5.90037726    -155.01323823
C        9.68339411       8.68392715       6.52087109    -155.77103686
C        0.53262161       2.08546953       1.76050414    -155.50466095
C        4.34413558      10.10665317       1.95359331    -155.89774421
C        4.07430571       6.84948085       8.29495027    -155.07048527
C        7.78246148       7.68450196       5.11688906    -155.52259404
C        3.59157757       9.88873214       4.30455914    -155.79917937
C        6.73560722       2.74957054       1.32659391    -156.99661221
C        4.45567013       8.64795332       1.97349640    -157.52122775
C        2.54067168       4.09974323       8.15006291    -155.66447516
C        4.05632402       4.22541670       9.52673824    -155.43540892
C        8.66114198       8.69418152       2.54289590    -156.87950247
C        3.35432778       0.44130759       1.91420483    -156.38006464
C        3.02845391       0.71004414       9.07256988    -155.61556014
C        3.25294317       9.98465540       9.59770433    -155.75791305
C        7.96797996       0.51045776       8.64113447    -155.37271475
C        3.97673256       8.74037840       7.15717462    -154.32641791
C       10.29407215       3.75951116       3.63288744    -155.90332783
C        9.37634777       0.75658144       1.39724673    -155.90413362
C        8.76541911       7.73666141       4.59288238    -154.81761661
C        6.80975822       4.40676869       6.91140388    -155.87895789
C        9.33740831       6.46644566       9.68475161    -156.83148825
C        9.08907921       3.89038491       7.34880186    -155.01088745
C        6.19872514       3.47514556       0.30129575    -156.37944444
C        0.52618913       9.53723278       7.06930239    -156.60556215
C        1.57978914       6.01629759       5.34921007    -156.54155242
C        1.88774396       7.77836809       4.24455750    -156.13718427
C        2.17103400       8.14266974       5.82877419    -155.73287433
C        2.17083560      10.26239011       3.87689342    -157.48720738
C        7.22010011       7.60270717       7.21217438    -156.36904850
C        1.84720683       4.17427016       1.01640025    -156.47903666
C        6.67732856       1.27200139       8.19250055    -157.35261282
C        1.99362921       1.01299605       4.98725795    -156.66657159
C        2.46142482       7.57535870       7.35116183    -154.34407243
C        6.63327236       7.12982615       8.56766222    -156.74556128
C        3.36083335       7.01711161       9.98180464    -155.02185642
C        0.96062462       3.27480942       9.07636044    -156.31240762
C        7.37376948       4.84982641       1.90368941    -156.79174551
C        1.37846097       9.06887329       4.14354882    -155.85011818
C        2.27946718       9.08615535      10.41419030    -155.16643833
C       10.09679561       4.34685059       0.04305990    -155.84992361
C        9.47550816       0.96681692       3.84855293    -155.97079895
C        0.74388461       5.98612969       8.01257916    -155.81456882
C        4.13612432       2.28725716      10.37036383    -156.91783315
C        1.77335866       9.23879092       6.29867915    -154.94308064
C        7.07536939       1.41110370       1.48803237    -156.02691479
C        5.66616619       2.96261501       3.69195971    -154.92727963
C        8.35587084       5.45571142       9.26326775    -155.66320894
C        7.17443579       8.52166375       5.99385702    -155.47474331
C        3.42673491       4.53072962       6.12866753    -154.40503156
C        9.77305198       6.02631179       0.96065490    -155.30892828
C        9.87427995       8.75131152       4.88825419    -154.94265434
C        7.38475481       5.11767224       5.98954434    -157.03664011
C        2.02707601       1.36956410       0.59524323    -155.02015562
C        9.74810524       0.14885023       4.95582653    -157.14433700
C        4.34476212       0.87327033       2.98675768    -155.38342556
C        1.50930340       2.81726818       1.21486095    -156.51452397
C        0.18669220       2.78171204       0.20584865    -155.93393402
C        1.15189369       3.05693015       4.08660678    -155.80901259
C        3.96910966       2.87158919       3.81546118    -155.73686416
C        5.36915493       0.75606663       3.78920915    -154.00356598
C        5.89954187       5.69891334       3.11721374    -154.54359223
C        5.04110906       3.09062756       9.59633639    -156.39127398
C        2.46430690       0.06249569       6.88210270    -155.34417312
C        3.98556677       0.65603222       4.08398575    -155.84074034
C        7.33211501      10.08578939       9.62478130    -155.35335128
C        0.56675655       9.25750358       1.28001066    -154.39265590
C        1.87025306       4.45485563       5.01714390    -154.28594286
C        8.94555979       9.67442415       1.26491105    -156.30023807
C        0.66105707       7.06323540       3.26916012    -154.94582712
C        3.26074360       2.77280473       2.60045403    -156.70795147
C        6.78377770       3.80520681       4.25959446    -155.17935750
C        1.15757431       7.58682438       1.47584616    -155.99141397
C        2.19134434       6.43043005       6.58251218    -157.15417257
C        9.94789839       0.41403221       2.57748090    -156.96565695
C        4.17800851       0.90648739       7.06414388    -155.84120466
C        0.13021693       9.37827960       0.15423221    -155.91298756
C        0.59991200       6.35281220       1.54566360    -155.83494427
C        4.68715576       6.51627647       2.72362134    -155.70446083
C        8.55973649       4.15969266       4.09299749    -154.50508447
C        3.97347455       2.18296959       1.43618618    -154.88855646
C        9.01090791       4.80624012       1.41200174    -155.83564920
C        5.46613287       0.33309370       6.28450890    -157.01207828
C        3.75243126       6.04206927       6.43651793    -155.83692052
C        1.71416107       1.05944772       6.28427917    -156.72547573
C        1.51236300       3.40394974       6.95392506    -155.65042811
C        5.79686242       9.52021178       6.79396941    -155.13214425
C        5.43946315       4.64119905       7.25274284    -154.74591347
C        7.35896225       5.55170778       3.15174653    -155.14365222
C        4.71255151       6.70613895       1.27991668    -156.41232334
C        2.98265384       2.56300783       6.58382792    -154.41611017
C        5.32375167       7.79306045       8.78853844    -156.11258978
C        4.21083921       8.88665459       4.70009381    -155.19481764
C        5.53653507       4.94070603       5.31293341    -152.75451139
C       10.22622832       4.74612361       2.46998753    -156.13951017
C        7.12538816       3.43185165       2.43040065    -156.58768084
C        5.68879472       6.29121288       5.47655432    -154.98634938
C        9.05273989       6.75179283       3.58111435    -155.21850239
C        3.24305428       8.17002865       5.07161111    -156.43159238
C        2.33828884       3.54562087       9.55206090    -156.77019413
C        3.67128389       5.87428187       9.21814643    -156.24545828
C        2.12024249       5.35695828       2.94059213    -155.67250234
C        7.67502032       0.60278677       5.72245036    -157.04126297
C        2.91420435       5.11170967       1.14110676    -157.14163745
C        8.32253891       1.89218196       9.83956963    -155.25567346
C        9.38290555       0.72355339       8.07133816    -154.80853692
C        6.96745832       7.18646536       2.82473445    -155.86615839
C        1.22024919       8.00276337       0.13847473    -155.91962486
C        0.31712632       1.29894261       4.68340696    -154.64643350
C        2.97163718       2.00402978       9.74398052    -156.09291352
C        5.93792789       5.97485198       0.78267161    -154.97680949
C        4.78927133       8.30596693       3.36984508    -156.21212954
C        3.51507704      10.26499026       8.00090463    -156.44894937
C        9.75608319       9.96303977       7.26482462    -156.51305302
C        3.99185306       8.72809822       8.92209587    -154.36236858
C        6.88076608       1.11358077       6.75042489    -156.03626824
C        3.00910427       1.89108551       4.64181515    -155.23798400
C        1.89964822       5.62515915       7.78779751    -155.64913451
C        9.10457563       3.75223285       9.44578928    -154.69669517
C        9.31770363       8.48778882       0.29140790    -155.67019210
C        5.32074427       5.70598280       6.50618917    -156.56049972
C        8.94803462       5.22073806       7.94142511    -156.66161179
C        0.42229836       3.91019402       7.68962915    -155.05460984
C        3.68528706       4.46880659       7.41046383    -154.73298199
C       -0.17866831       5.20673489       5.08330652    -155.20380658
200
Lattice="10.442332386506106 0.0 0.0 0.0 10.442332386506106 0.0 0.0 0.0 10.442332386506106" Properties=species:S:1:pos:R:3:gap17_energy:R:1 anneal_T=3100 density=3.5 run_id=312 time=2 pbc="T T T"
C        5.34521066       0.69354421       8.44792000    -154.82642869
C        4.06797766       7.69202044       1.30058206    -155.41952736
C        3.28820693      10.10856412      10.07323771    -154.02374143
C        5.83099840       3.46162274       9.01516838    -156.84623254
C        7.65121181      10.20778716       4.06140943    -154.32808794
C        9.43802018       2.57499563       2.13886117    -155.79651929
C        8.41803404       3.10338809       0.85220919    -156.09733504
C        2.07718876       4.08438256       2.20745685    -154.97582993
C        9.47794122       3.96506847       6.81705741    -154.89734859
C        1.14812400       6.26881407       2.17084604    -155.89195659
C        8.19455769       8.50349409      -0.06127018    -157.16558703
C        3.89710977       7.16027599       8.87948071    -154.39777023
C        0.65642277       4.01269595       9.41987141    -156.82719038
C        0.88313416       1.84259132       0.48085583    -155.80003888