200
Lattice="13.033549111243852 0.0 0.0 0.0 13.033549111243852 0.0 0.0 0.0 13.033549111243852" Properties=species:S:1:pos:R:3:gap17_energy:R:1 anneal_T=2700 density=1.8 run_id=191 time=0 pbc="T T T"
C        5.23607195       0.54066159       7.02088617    -153.76281178
C        2.26189425      10.28558168      12.63257197    -155.79267347
C        1.48183633      10.72315703       7.22368819    -153.60497880
C        9.61183843      12.01637184       6.13726367    -153.87178965
C        0.39365750       1.88272224      10.26445430    -149.90101777
C        2.63608744       3.26830581       5.76007276    -160.74941178
C        4.09707010      12.08571032       2.81430819    -154.87006305
C        6.44870033       3.01733179       9.55876582    -154.51038799
C        2.54985748       6.91523622       7.64192175    -155.57237093
C       11.15550592       5.22337728       0.18317480    -154.41720637
C        9.38912114       9.07387869       7.21060251    -153.32758084
C        8.52398022      11.93444295       5.87664482    -152.29872272
C        4.33996332      10.70143010      10.56270100    -155.32687159
C        9.32842390       0.09215658       3.73273026    -154.62564415
C        2.28633215       1.36547281      12.13702340    -154.97048555
C       10.57466580       6.69167175       6.99513188    -154.77416984
C        0.18282941      10.57761139      12.09461223    -155.30912799
C        0.66656829       8.11440094      12.08933365    -155.95194268
C        6.28157113      10.44000317      12.14914460    -153.20008741
C        7.62697227       2.29685023       7.83898901    -153.43381214
C        2.78842356      12.78881816       3.90685848    -152.72470061
C        3.06851453       6.74104284       4.22380833    -151.47515017
C        6.75407638       4.00339798       8.68752519    -153.00768511
C       11.62217215       1.01960282       0.46432410    -154.18029824
C       11.67967616       4.03957911       5.85214175    -154.57359713
C        8.33938606       0.82240261       8.43342312    -154.96399516
C        2.97979517      12.57454661       9.03849260    -155.31247290
C       10.28504731       3.13971681      11.28068012    -154.21109472
C        0.22265082       6.05970102       0.18873100    -155.41160133
C        9.14002395       6.51182181       5.21996249    -154.52114475
C        9.52225885       0.57286749      11.17970922    -152.44820550
C       11.81586372       8.74981252      11.04417334    -152.74126375
C        4.86095338       0.60242107       9.57056118    -155.26761347
C        1.45322769       9.24652108       1.83061411    -154.25271254
C        6.96863467      12.04462857      11.71919388    -153.81135204
C        7.65796605       1.62459280       2.17425666    -154.73763558
C       10.23767036       3.86333946       2.41660247    -152.16846160
C        9.67088041       7.21917858      10.70961517    -156.55931652
C        9.24418808       9.69933264       4.77882898    -154.08850752
C        8.96558293       7.57882634      11.79473634    -154.30624851
C       11.38531346       8.95343566       8.77058800    -153.98104481
C       11.03438515       3.63732468      12.30043804    -156.17457907
C        7.70890116       5.92339617       6.98212439    -149.08738494
C        9.68251937       8.06860105       1.77232808    -153.73015307
C       10.13362353       2.39398927      12.90357856    -155.28103067
C        5.38452408       8.76216833      10.46218627    -154.19876878
C        9.94397236       0.73662492      12.85754406    -154.71574212
C        7.72074865       2.84068810       0.78152940    -153.81250369
C        4.93385002       1.61411382       1.07530299    -153.17310632
C       11.55192132       2.05540373       6.91290321    -154.66257416
C        6.48750120       8.74240947      12.34618580    -153.77541222
C        5.26268646       2.15004033      11.84077083    -151.63022403
C        7.32304294       7.95324110       1.78326322    -151.24961010
C        1.89287537      11.58168994       5.64557303    -154.18215695
C        0.02688469       0.78249388       5.26166984    -156.64094681
C        6.15592771       1.79774350       5.39459901    -154.11744847
C        0.14951175       6.10879840       8.37836941    -153.90682379
C       11.62768534       0.58276387       9.01754769    -154.91303027
C       10.37138154       3.82313096       8.99735872    -154.68999769
C        3.82715833       1.05417300       9.10792232    -156.43711213
C        4.48794623       4.08030895      11.75098271    -156.32029953
C       12.01102808       7.34362291       8.22254030    -155.62065178
C        7.48697892      12.18823222       8.37284318    -153.39734075
C        3.12798662      12.55201161       1.56300928    -154.84376561
C        9.71188395       9.34419450      12.42132421    -154.66616171
C        3.66440840      12.04826493       3.92204257    -153.97956099
C       10.68259662      11.70591270      10.51293891    -153.98242831
C        0.46360595       3.21683632       5.85504823    -153.72431913
C        4.42586744       7.08157037      12.74971751    -157.94975606
C        7.93253079       2.25437389       4.26429053    -154.41752687
C        7.37444725       8.90858722       2.12329549    -155.33445390
C        5.95437691       4.17596217       8.01985557    -153.32506162
C        4.53463241       5.72162379      12.19709503    -155.78931924
C        2.60810441       3.77318640       4.48146856    -151.90944338
C        0.32029686      12.87515239       4.21024040    -155.81253306
C        8.68003090       5.30114846       5.49254613    -154.83906310
C        2.06022614       3.78158001      12.33883488    -152.94675551
C       11.38483122      11.78395759       6.89740632    -154.67702253
C        8.03580864      12.22713736       0.76897940    -154.22718154
C        7.33199699       3.31096461       5.31510739    -154.34649997
C        6.90544802       1.21576294      10.77251508    -153.90770127
C        7.48097045       8.94427308       4.70193104    -154.20672740
C        3.46164548      11.68945133      10.65155071    -155.10119576
C       10.12919213       5.30848635      11.45500384    -153.66110409
C        3.83639911      11.57032469       7.91996645    -154.98994270
C        2.99308939       5.72138919       8.22793618    -154.82892193
C        0.66753537       2.32459865       1.39486346    -156.66375052
C       12.82000744       1.85975712       2.71590490    -153.76086959
C       10.27571529       7.55210756       8.36044828    -156.53195763
C        7.61507264       0.12336867       2.71316785    -156.01621333
C        5.92373504       2.96023181      11.79923291    -155.06355203
C        4.49183023       2.89674539       2.70447447    -154.96021555
C        4.95664569       0.34103454      11.46079074    -154.29427008
C        3.08509321      12.29064985       4.76698149    -152.07832074
C        3.47019548       8.25727470      12.48363761    -155.68028691
C        0.13883076       0.28788112       6.57773246    -155.57453569
C        7.00278257       7.37698880       7.49980393    -155.57483903
C        3.56176920       9.39357862       6.86660805    -151.96586394
C        8.05130553       9.13242539       9.27142819    -152.95764644
C       12.35832003       3.38431743       0.87610996    -153.21300544
C        9.07600316      10.21689488       0.21990204    -155.39185199
C       12.99189389       8.41462874       0.34460574    -153.85656323
C        9.69995826      12.92920252       2.00947350    -154.69223118
C        5.88120657       7.04026706       7.23797296    -156.71065384
C        5.79034970       4.42658428       4.32544394    -153.83703543
C        8.81367692      12.88357206       6.19063606    -151.66099643
C        1.03559237       5.30795198       4.53841214    -152.84737856
C        9.50104023       2.65941749       7.15167783    -154.18553101
C       11.48631043       5.87072759       7.02822406    -157.33969826
C        8.44502298       9.68262363       3.37933861    -154.86499661
C        0.04986962       7.62831472       4.21288621    -151.22723959
C        9.92124185      10.43956003       8.89805611    -153.03839563
C        1.62340674       0.89417185       6.05176359    -155.22683801
C        5.92587254       6.86934509       9.80864502    -154.66228954
C       11.53738891       6.44803562       0.44161053    -156.16372637
C       11.05273638      12.75470936       1.19380272    -155.74814281
C        6.40395615       9.41616576      10.38797325    -155.49480188
C        1.82688651       6.36737098       2.51653070    -153.44872392
C       11.14747725       6.88265235      12.39669080    -153.94417621
C        3.77120530       3.91052091       6.43282547    -155.05917065
C        1.08432481       9.09421103       7.60207819    -154.27511536
C        0.89868015      11.40992080       3.57138796    -155.60639984
C        2.15822540      12.33446864       2.74188076    -155.93307735
C        7.41895683       2.37412614      10.87621000    -155.77405482
C        6.31153526       3.98168409      11.47051377    -150.70356995
C       12.35908901       1.88141888       7.54414406    -151.42060037
C        1.48655448       0.17981866      12.54970467    -154.62124532
C        7.18480912      12.75216782       5.91547177    -153.23335213
C        0.72930918       1.67195671       0.36288268    -154.87478818
C        2.65932626       2.83540951       0.79021757    -152.21882402
C        3.52889859       8.11182030      11.10865031    -154.32312263
C       10.02302084       5.59875652       3.27881085    -154.14982697
C        3.42085047       2.59125203       2.53271836    -154.88263126
C       10.83383793       8.68592207       3.08558848    -154.63962693
C        8.90934317      12.77936884       9.28553049    -153.97341100
C        4.62100574       7.91643436       8.27443989    -153.60896879
C        2.12746622       1.95299913       0.73309152    -155.18939506
C        6.69002952       3.19621725       7.55345002    -154.09942214
C        1.31770485       5.16651190      10.23769642    -150.61687610
C        9.01117429      10.67402055       6.04606793    -154.05387486
C       10.38032255       9.40272817       1.21931850    -155.26409766
C        4.76179413       9.45370238       0.52783007    -153.89616971
C        2.85192302       8.72106052       7.17960873    -153.44783338
C        1.22674632       1.01723723       3.63218947    -154.49887429
C        9.01336392      11.53437816      11.68762663    -153.78682611
C        3.02588180       9.72676827       2.55426282    -151.82088123
C       12.14398332       8.71632934      12.54923546    -155.95334450
C        8.41971183       6.32893505       7.22579963    -147.98398714
C        6.04780139       3.56623971       3.60067434    -154.94887453
C       10.43120553       0.52320967      11.89423445    -153.86515125
C        6.63390706       9.88159380       3.44730857    -154.52107427
C        5.76357879      12.36799093       2.79454933    -155.33317441
C       12.25909562      12.49578487       7.85753575    -155.63845433
C        7.55440147       5.01752540       0.44309636    -151.79738111
C        4.52483118       6.99318988       0.91080396    -153.74925190
C        6.55027078       6.05052540      10.19411224    -153.33415988
C        3.79723330       3.12330757      12.48219088    -155.05789324
C        8.46332208       2.49853136       5.83452039    -157.00362416
C       10.93161561       1.77705925       8.57215222    -155.19912935
C       12.23047395      11.32984267      12.90928725    -154.03388333
C       11.06450568       6.84793097       3.23623024    -154.06982309
C        6.84536336       2.59187764       0.26442725    -153.27169842
C        5.89679469      10.04951804       5.67771376    -153.25605869
C        4.97602658      12.76727370       0.47577928    -153.61763457
C       12.81107946      12.22704613       1.86701681    -152.86867811
C       12.96135628       4.88593869       2.81768388    -153.01176590
C        9.19493429       0.74833817       1.59088804    -153.47042835
C        0.81593406       5.13163412       1.04294069    -154.71549923
C        3.45649722       9.82068802       8.31716386    -156.03449083
C        6.44277006       0.59348136       8.84325004    -154.55705782
C       12.63917998      10.42063532       4.11443078    -152.94235087
C        5.09476221       1.50598750       7.11548367    -151.24279693
C        3.86661088       4.88192436       0.31796516    -154.63912375
C        5.45252010       0.64819489       1.28556542    -156.61119529
C        6.68110154      10.70023102       4.97057856    -155.92658691
C        7.33722344       3.02847547       6.82669932    -153.69828581
C        5.55762264      12.09852230       6.63373763    -155.05678849
C        6.77276649      11.98166350       2.08848288    -155.84571023
C        9.61581366       1.69510430       4.56851963    -154.29789683
C        3.59765056       5.89465719       1.98877623    -154.16351637
C        1.56167985       8.76463167      11.82240656    -154.50913377
C        4.45295115       4.41207794       7.61328704    -155.75784740
C       10.34295537       0.15368249       6.85085049    -154.55274109
C        8.28601368       1.57520868       0.35165037    -155.04076232
C       12.14060763       4.88436163       6.90327142    -155.43519980
C        2.94124193       1.02014110       9.88124189    -153.57977675
C        2.64547160       1.85658997       5.94716936    -155.02241566
C        4.42634968       6.47420698       6.70984052    -153.81390554
C       11.55039639       4.56686437       9.36653400    -153.81238580
C        9.26874328       9.05204750       3.85366857    -154.71082535
C        7.41801841      12.21110610       7.28477644    -155.24391285
C       11.46166399       1.70478822       5.82045719    -152.21105628
C        4.51095045      10.91653580       8.81898157    -155.53997144
C        2.23106990      11.26732074       0.27151750    -154.78158519
C        2.06009581       3.24728269       6.87955036    -152.82212191
C        2.57794478       8.87917050       1.21379488    -155.62773572
C        9.39511657      12.88292038       7.78587730    -156.62463446
C        9.92107242       7.29732774       9.62811733    -155.49046085
C        7.13042011      10.61628193      11.54875416    -155.16796448
C        4.44673415      12.20337720       5.54679176    -153.88024862
200
Lattice="13.033549111243852 0.0 0.0 0.0 13.033549111243852 0.0 0.0 0.0 13.033549111243852" Properties=species:S:1:pos:R:3:gap17_energy:R:1 anneal_T=2700 density=1.8 run_id=191 time=1 pbc="T T T"
C        8.98886085       0.19206108       7.52012323    -154.91030671
C        4.65744754       8.61389867       4.97703016    -156.96663326
C        0.64785732       9.00318472       2.28794831    -155.02808486
C        7.29279207       3.84965423      12.51942773    -156.26998890
C       12.04346859       1.00813590       8.78263100    -155.90570286
C        2.46262394      10.84769259       0.05862477    -155.99082096
C        3.90264864       4.50107102      10.46725632    -155.73115700
C        9.02531569      10.36208862       8.11141626    -157.92534730
C        1.40715410       6.82203331      11.09344016    -157.32014942
C        1.07560928       2.66107276       9.35449100    -155.53118153
C        7.05028985       9.36232417       5.42577526    -154.89545138
C       12.56043128       1.49343619       6.18516197    -151.98442984
C        0.99625582       4.79359599       1.12272556    -151.97628589
C        1.17105135      12.52603574       4.88851933    -154.50505250
C        4.43093749      12.19649549       0.34652558    -154.69780083
C        0.31709322      12.70562502       9.92350969    -155.75273456
C        4.08440149      10.28227116       8.13612786    -157.23955682
C        2.85210548      10.03325217       3.26681998    -154.06742496
C        1.43302569       6.75034879       9.64910135    -156.04277795
C        2.15829057       2.54691190      11.86120744    -154.65180282
C        3.75921444      11.56018459       1.22012527    -156.05866392
C        2.69452988       3.42133271       7.78161533    -154.52328770
C        8.18755825      11.19833416       7.24379896    -155.16604026
C        0.41443558       2.21330518       2.57987374    -155.71400055
C       11.62092092      10.04057703       3.64088284    -155.44989463
C        3.69684890       4.96591255       7.59476637    -156.63234120
C        0.79663920       7.07969354       8.49290824    -155.21626266
C        6.07239570       7.61189245       6.96411203    -155.42008167
C       11.44438150       4.60464863       6.03290404    -155.48918585
C       12.56829051       7.04656226       0.75680215    -155.93061393
C        7.88959828       2.89269196      11.68333859    -156.07244232
C       10.18904219       4.93623516       3.99934454    -155.29562811
C        1.05012869       2.06748583       0.41265259    -155.32993816
C       11.80793932       4.36094733       0.92298251    -157.80070858
C       10.79841274       3.59414454      10.28377002    -154.78026667
C        2.28170524       2.72728319       8.95545586    -158.10227099
C       11.10172950       0.54497179       1.59374239    -156.35940894
C        6.39604479      11.51834689       6.15016689    -155.58562552
C        0.22026046       1.76224011       1.37790681    -156.65085337
C       12.64036604       9.35645907       8.68790317    -156.34856435
C        5.49413623       0.59706167       8.19239370    -155.61598178
C       10.83455477      10.67691400       9.81053489    -155.48600107
C        9.60590816       4.90676630       5.18718311    -156.85323731
C        0.26059148       8.25792638       7.48518029    -155.33250613
C       10.55654917       3.81318636      11.93040255    -155.89085809
C       10.14870335       7.44654885       1.64860059    -155.40577514
C        7.55945848       3.49842615       4.23454797    -155.33372542
C        6.36853097       1.14558901       7.13288346    -157.96939258
C        3.86375653       0.84223837       2.77894817    -155.64068126
C        4.35046836       3.41946891       8.13563259    -155.52552807
C        9.85886329       1.75501952       3.57691418    -154.44803734
C        0.11738705      10.17666031       6.40360425    -154.80676731
C        4.18144929       2.50834563       7.18478305    -156.56384956
C        6.45596002       7.23850734       8.28830758    -156.48059120
C        6.52394301      10.85948795       4.84051677    -156.83063864
C        0.22259738      10.88418653       1.05230660    -155.54997705
C       10.76727559      10.48399140       5.02849965    -156.21103789
C        0.09971160       1.67933370       9.68745908    -156.05198431
C        8.73692234       3.93412467       5.66812107    -155.68178747
C        3.56526219       3.16708727       9.38578455    -157.16512432
C        1.07064611       8.35236748       0.87552996    -156.23979364
C        6.15220012       6.83212128       4.31531688    -156.76605909
C       11.08833101       0.28917535       8.93200851    -155.60517859
C        8.89275146       8.29014531       0.88379193    -155.84071935
C        1.29221383       8.26459956      12.41406452    -155.04620864
C        1.11485199       0.24911544       3.67143348    -156.81946959
C       10.27710988       1.48197970       1.72123656    -154.94612415
C       11.38167710       9.05409376       4.97768184    -155.76148114
C        4.56872817       2.90199791       1.36321800    -153.58886551
C        3.65009756       5.85967514       6.57314466    -153.84451632
C        1.38283349      11.68185277       2.42076018    -154.67122670
C       10.79537592       3.89498492       7.31067410    -156.46410383
C        7.35818139       3.75788501       2.68908185    -157.73327031
C        8.78480760       2.22328887       7.66910973    -155.66806874
C       11.98575603      12.32461527       1.82107355    -155.27620664
C        0.07982945       8.17472020      11.33334870    -154.72669524
C        4.45442395       0.96373321       0.16162774    -154.68180459
C       11.28808318       9.57874625       9.29020954    -156.78875898
C        7.50811933       6.27858645      11.36990780    -153.95164561
C        6.70435339      13.00381959       6.25709412    -154.81381159
C        9.12904970       2.59853779      11.80925571    -155.31679249
C        4.13293842       1.05915833      11.53491253    -155.30279275
C        6.00810120       1.09868257       3.32767362    -157.05941802
C        0.19500536       9.42528924       1.13700381    -156.93244156
C        8.46510768      12.95207640       1.44465162    -156.34595180
C        1.31844776       0.17774112      11.17188909    -153.95026529
C       11.18820709       3.43871946       0.18996398    -154.96170635
C        6.67773889       8.78578512       3.99487404    -155.53475210
C        9.53848562       9.30397297       1.36075466    -156.59046315
C       12.93781769      10.59090561       7.95408828    -156.68713170
C        9.84532143       1.34568788      -0.17863652    -155.30985479
C       12.83556950       4.61572715       1.43726159    -156.21289037
C        7.80220834       4.69579224       3.43926687    -153.49645902
C        8.98023264       2.28256546       4.06710597    -155.79461831
C        3.55394907      10.89456123       9.33737795    -154.88775232
C        5.37347163      10.94665633       8.16048757    -152.96020016
C        6.79036179       9.83228788       2.75597003    -157.10868428
C        9.99879147       5.83222649      11.67461915    -153.37324902
C        6.17081203       2.12063664       4.21286015    -154.27713704
C        6.65829283       3.15228115       1.83547562    -154.88712187
C        9.26416851      11.42238087      10.79377280    -154.49653374
C       12.11014822       8.27802411      10.20177596    -157.18022772
C       10.14969390      10.31684917       1.78241604    -156.78305601
C        3.31483558       2.09724142       3.65967722    -156.45043876
C        3.66197113       5.48657677      11.25435236    -156.45884590
C        6.56236591      12.36681791       2.95950193    -156.17829517
C        9.81314160       8.14813176       9.58264328    -156.02899214
C       10.80208820      10.86868964       6.66003933    -154.52700315
C        0.27886321       4.18641508       5.75472901    -153.05143701
C        6.66267210       9.31184523       1.45279759    -156.61452528
C       10.95723957       7.45376943       9.97759892    -156.48982010
C        8.74298295       7.65883930       8.62119746    -156.29819444
C        4.41113953      11.84947724      10.82458411    -153.38724815
C        0.32130045       5.77103398       1.46119119    -156.39391560
C       11.73349169      11.57389588       5.57456626    -154.02876716
C       10.69085989       5.34452412       1.31215256    -153.25019011
C       11.09912279      12.10827139       0.12762699    -154.61467554
C        5.85425319       8.04824264       5.69309335    -157.04026638
C        6.02960656       3.55934496      11.76464187    -153.71957698
C        1.87737848       1.12816837       4.68995321    -156.51083909
C        3.85001917      11.33028581       4.13714826    -157.02931259
C        9.57479708      12.72793845       8.63997881    -157.44903553
C        0.97972667       2.07295992       3.79664679    -155.70974057
C        7.58148518       7.63932807       9.15772351    -155.38350884
C        7.48583197      12.39369308       2.07748256    -156.63382278
C        3.89534986       9.66429846       6.05396626    -154.30263215
C       11.66767227       8.20542725       6.89796677    -155.69445992
C        7.56065757       2.28002391       7.75182064    -156.93390012
C        6.87017924       7.48184370      12.41768785    -155.75440607
C       12.41214859      11.44522868       8.97348126    -156.09126228
C        1.96165341       7.59523558       4.66694900    -154.30802670
C       11.21187602       5.92105013       3.99557785    -155.70952896
C        4.30780955      12.04349465       3.12517137    -154.87340957
C        2.45806219       3.25185747       2.95634781    -155.34814061
C        5.13480128       4.76665565       2.00143180    -155.54058320
C        5.72546869       6.46534417      12.70032036    -152.89213814
C        4.26937362      10.44941340       5.10114865    -156.62339480
C        5.31939543       7.20127049       1.97108970    -156.98534911
C        6.81348330       4.95927847      11.19223446    -156.82800360
C        7.21920465      10.01157738       0.29072765    -154.92053313
C        7.00422929       4.89164738       7.21128025    -155.12036566
C        3.04312518       1.71475889       5.39573293    -156.19570217
C        4.52473994       8.56503590       1.42876372    -154.35512918
C       11.28594568      10.84246614       2.48322998    -156.87938305
C        6.71703504       6.23659235       5.32973104    -153.37690321
C        9.69392372       0.50615006       5.55668423    -155.89708308
C        1.10713744      11.44581519      -0.20540613    -155.07545296
C        4.79641124       6.89400457       3.96225106    -156.63826380
C        5.51734898       5.09719949      10.24774529    -156.33030637
C       11.30758137       5.77685997       7.27801203    -156.63803708
C        5.06756120       0.24293363      10.73559103    -157.46592658
C        5.71914742       2.37943079       6.46958007    -155.92333538
C        3.80636982       7.88580552       4.07634675    -156.78727649
C        2.42777223       6.07853450      11.50238080    -155.87567055
C        6.71848176       7.40576687       2.44212216    -155.77467161
C        5.48281007       5.67779197       8.78243550    -154.85796326
C        2.21726737       4.76428354       3.84056985    -154.74365582
C        2.79342845       6.50952790       2.48270864    -155.03993062
C        1.45185917      11.73029847       4.00182092    -155.79503141
C        0.47198000       7.67958871       3.50107196    -156.51648649
C        8.16553155       4.52364512       6.52827015    -156.34390610
C       11.68382083       6.59643561       6.50540930    -154.85802823
C        6.17569961       4.59568155       1.35297363    -155.60504453
C        5.10058821       6.03011487       2.61278346    -156.69387929
C        8.70757079       9.15999135       8.54337414    -155.85197538
C        9.36257180      11.85160171       6.21356207    -155.42093504
C       10.91005812       6.92284781       2.86001685    -156.38467045
C        9.01615310       0.27288211       0.39489308    -155.86254408
C        6.63096148       3.41226136       7.36795655    -156.64511097
C       10.30970678       2.71862891       7.63355421    -156.03705875
C        8.48042210      12.67871074      10.28757582    -156.42319199
C       12.10451773       7.49349569       3.65355145    -155.55672969
C        3.80049169       1.62282023       9.57959343    -154.91601266
C       12.73830012      11.53819699      10.14328139    -154.50915962
C        4.74647971       1.15884674       9.01641377    -156.42033957
C        6.83677425      10.97692023       3.58117616    -158.21923431
C        1.09254247       7.01546421       2.39530566    -155.40766562
C        9.99704497      11.36973837       0.37113943    -155.57277740
C        9.82200441      11.23190858       8.91868822    -157.00511854
C        3.02130702       3.21886956      12.62266648    -154.56126623
C        4.05059246       2.18450103       5.96612014    -156.21655954
C       11.23910310       9.14032372      10.75502406    -153.94928601
C        3.55821104       7.80039667       2.32577167    -156.33885460
C       10.39181814       1.39140957       5.93434435    -154.44358547
C       -0.04118836       1.25381178      11.71572696    -154.45643663
C        0.75946360       5.36952246       3.32260357    -154.96981763
C        7.38912303       0.58573552      10.18004904    -155.08296942
C        6.29648151       3.24027064       0.41465194    -156.12127068
C       10.89015589       6.15377718       8.86952567    -154.91568038
C        0.47751926       1.03864874      12.89930356    -156.95115775
C       11.34957547       7.09788838       0.26484172    -155.05448434
C       12.38425680       8.97305115       5.75157489    -156.93955388
C       10.40555550       4.64509174      10.06680053    -154.82646596
C        5.20146788       1.34145198       2.23419796    -155.99743519
C        5.98945019       0.48699987       9.62199156    -157.66640204
C        2.66109882      10.41487449       1.58129535    -155.67536337
C        4.87493837      11.07335546       0.41437693    -157.22433867
C        7.40259972       7.45765343       1.12173631    -155.86070043
C        5.78924184      10.11608038       0.03955656    -155.90863692
C        3.25611944       6.92935155       4.98564534    -155.15019542
200
Lattice="13.033549111243852 0.0 0.0 0.0 13.033549111243852 0.0 0.0 0.0 13.033549111243852" Properties=species:S:1:pos:R:3:gap17_energy:R:1 anneal_T=2700 density=1.8 run_id=191 time=2 pbc="T T T"
C       12.82188427      12.88104355      10.62391959    -155.23421281
C        1.36310070       8.05009341       3.21076269    -154.36839125
C        6.58520069       6.38020903       1.42254672    -155.07773610
C        1.50514032      10.41259362       8.14822300    -157.95431681
C        7.30174612       2.43030074      11.77976079    -155.42759883
C       12.74617239       6.31853427       8.67937923    -154.59775250
C        6.70022176       9.31773639       6.25400517    -157.48697555
C        9.45165611       0.37237371       6.97204946    -154.72665021
C        4.43160220      10.04814952       8.69485005    -155.47901767
C        4.77849011      12.08687031       8.57804338    -155.73409772
C        7.76533643       0.38461482       0.21531944    -156.00427101
C       10.74599181      11.84358608       5.35220088    -156.96354322
C        2.56186138       0.90838494      11.48475944    -155.09295505
C        0.38175656       3.37260027       8.33709216    -153.76735861