200
Lattice="12.010956177378656 0.0 0.0 0.0 12.010956177378656 0.0 0.0 0.0 12.010956177378656" Properties=species:S:1:pos:R:3:gap17_energy:R:1 anneal_T=3800 density=2.3 run_id=482 time=0 pbc="T T T"
C        9.14151472       0.25717619       4.35124513     -92.00840949
C        6.04154699       9.30435927       2.98633208    -155.79071194
C        6.84703774       5.81623346       1.22772391    -155.30579168
C        2.08614695      10.41246606       1.31446703    -154.34017378
C        2.06391467       6.62901487       7.68699994    -154.25467803
C        9.89219949       1.63529168      11.56816027    -154.43198985
C        0.49363709       7.64842075       8.91778664    -153.91286054
C        0.50679149       7.43211544       4.51416174    -155.86734438
C        0.50250958       2.31137640       8.23401492    -153.88000221
C       11.62797483       2.09306526      10.25444992    -154.24157957
C       10.59720658       0.73813451       0.44863564    -155.89641474
C       10.88149390       1.18378543       8.08533129    -154.56086925
C        0.41490527       9.43102681       9.53010519    -153.80246572
C        4.92441997      10.17530973       4.91550784    -155.31114055
C        2.96041243      10.66583718      10.94080400    -153.55688904
C        4.85092493      10.90917916      10.13503700    -153.41083753
C        5.48452689      11.68832988       8.67744741    -144.48979624
C        9.14293202       3.18006880       8.21029328    -155.69035821
C        7.61739645       8.74702688       7.13783500    -155.08122177
C       11.16856777      10.84142535      11.42238329    -156.35070840
C        4.56423541       3.10323471       6.44959520    -155.18763708
C        5.84724575       1.51112242      11.19674547    -153.35741477
C        5.31890781       2.81444328      11.07447394    -154.34534565
C        4.73963141       5.05251681       2.85195350    -154.06804580
C        3.40191116       2.03807910       6.31238204    -154.77914147
C        1.01505311      11.20032473       3.52211681    -155.01352949
C        2.36877676       9.71500185       4.17074448    -147.62741818
C       11.65847065       0.88646262       1.20704104    -157.04704624
C        4.39108547       9.02505649       5.99929245    -154.60143984
C        6.94079527      10.41543277       3.24791869    -155.20499339
C        1.95645264       0.80317384      11.26362247    -154.53128613
C        2.74498392      10.47905480       8.13122516    -151.42157088
C        0.10122966       6.51940288      11.28455757    -153.38895532
C        1.36174216       2.98850606       3.20736970    -155.47231094
C        2.49241754       9.52976888      11.03218336    -153.86125618
C        0.99922748      11.48314672      11.08543994    -155.24562397
C        7.68063414      11.44233349      11.67494968    -150.80385795
C        8.09939612       5.18401276       8.44687309    -153.68399521
C        4.66524755       9.99155412      11.36989541    -155.17764261
C        9.94943169       6.12432650       9.00866154    -152.50626362
C        8.63894029       3.35827536       5.77854308    -152.93893844
C        9.50734443      11.58650100       5.95367483    -148.10530618
C        8.13290669       5.23114375       4.45423908    -154.90779837
C        1.86772771       8.28878488       6.69593992    -155.44192051
C        4.52523584       1.85717008       8.84498824    -154.38702015
C        2.29685515       0.84519657       8.27805910    -155.23717312
C        5.27923562       6.24317491       3.20455914    -156.53381284
C        7.57008530       3.43002881       8.14304394    -154.69248498
C        7.76170809       1.87923420       7.97263249    -154.12076772
C        5.11804859       5.78596585      11.97266525    -154.92042058
C        0.62556783       6.56838356       3.64359562    -156.19759020
C        9.02028814      11.69375884       5.16140814    -141.37981547
C        8.19051124      11.73865579       9.15789767    -155.00860554
C        9.63395192      10.66874384       2.08158278    -153.63107202
C        3.56907965       9.23689373       3.40368878    -153.93021330
C        9.12642896       8.07626302       7.15056662    -152.88035167
C        6.05555176       2.48074289       0.93825506    -154.50689511
C        8.00308027      10.67697134       7.44668473    -156.18528072
C        8.41465970       9.66826722       8.34563274    -155.35846665
C        8.58296923      10.61894641       4.05308515    -150.87368679
C        9.14589872      11.26164067       8.34371098    -155.08276084
C       11.67482957      11.72696913       1.35162893    -153.59178053
C        6.28432445       6.05138396       7.72721262    -150.51818012
C        2.87849771       4.11452119       2.03553278    -154.16508267
C        9.25629142       9.89624718       4.52020325    -149.87107713
C        5.41724151       7.06079673       5.74423979    -154.66183878
C       11.02277878       0.02045514      10.84183372    -155.74782259
C        4.57467293       8.46585040       8.61527870    -152.24165973
C        6.22111078       8.22321707       0.62735626    -153.29675744
C        2.77468702      11.66365938      11.15327782    -154.27671434
C        6.43114638       3.84667687       1.49839081    -155.34208738
C        0.48187836       4.37519497       6.75598269    -153.04607040
C        0.81931056       7.97479446       5.96557769    -155.66742169
C        0.84269709       7.15425398       1.08916071    -153.42151502
C        9.46136649       0.61187174       4.19410579    -113.07211651
C        1.65285170      10.44996427       7.71573015    -154.37563175
C        8.99636232       7.90442227       5.07490524    -150.97767723
C        4.68684325       0.50363861      10.88208244    -154.65994388
C        0.27448278      10.89952235       7.89506574    -152.75284369
C        8.36907812       8.96352437      10.39299630    -154.93197811
C        3.71161367       1.78986068       4.23547152    -153.75075798
C        3.84115183       7.62209274       6.46039305    -152.29289741
C        5.79317243      11.38947327      11.20282301    -152.81551681
C        6.87951537       6.09379465       6.49158551    -154.04114394
C        5.59097999       0.02714440       9.67494531    -151.61906822
C        6.44325342       7.28495721       2.84198441    -154.13218396
C        2.83154689       3.77952361       7.86446182    -154.44518835
C        6.64832849       5.20158479       2.56342631    -154.98760273
C        6.68936992       4.36009720      11.00350120    -156.12172856
C       11.11395395      10.83187664       9.96809672    -155.35225667
C        2.08271181      11.38344377       8.16550443    -153.53865394
C        1.93658652       1.97681121       2.07202206    -154.86180016
C        7.51692480       8.38255441      10.52126130    -151.88433949
C       10.98273425      10.13313927       0.39789175    -153.37465848
C       10.56350384       3.20739373       6.09602869    -153.63089895
C        4.03640193       9.31981737      11.85854915    -150.75921036
C        8.12666099       9.01225281       5.02115621    -145.65086049
C        6.95769468       5.35016032       7.35189427    -150.29542008
C       11.74197081      10.95968523       4.33160721    -154.58128181
C        2.77425462      10.48599714       4.79485778    -154.07879840
C        5.15487418       0.37541565       2.04141814    -153.41327651
C        5.93213919       0.44775403       8.78983393    -146.10850674
C        4.10445601       3.25641044       4.76776107    -155.10601137
C        7.86105071      11.69237758       1.83464953    -152.70307767
C        4.96281899       9.24235871       3.83260003    -157.99100679
C        2.62357718       6.25283172       8.64687953    -153.35845935
C       11.08002300       0.26227484       9.54582753    -154.64317154
C        9.26856662       9.31912073       2.81250952    -146.16210241
C        2.93719526       0.56693515       6.95578494    -154.71248230
C        8.93056630       7.52452774       0.58110087    -155.05964179
C        5.69528313       7.51573572       0.08635853    -154.32680291
C        0.59520534      10.83856674       9.00144295    -155.35247381
C        1.03539487       2.93169424       4.40785276    -156.50631435
C        6.35659437       7.31843174       7.12304952    -153.54012463
C        8.82670756       8.87789826       3.35569300    -144.76354489
C        5.14570982       3.23361364       1.55884195    -154.24215908
C        0.79964742       6.47230792       9.85553004    -156.87942699
C        5.42861589       5.32392839      10.83602042    -155.30204203
C        8.34801090       9.19182862       4.22661945    -142.67918052
C       10.81705512      10.51925547       3.91510329    -156.71874738
C        2.96465230       6.73767799      11.29806990    -153.95428808
C        6.85770347      10.96356477       1.08730382    -152.88263582
C        9.36288866      11.81186257       4.29325623    -113.15739218
C        2.00031665       8.68227582       1.16800183    -153.66614776
C        7.62381030       6.63183744      11.90371035    -154.73495256
C        8.66224154       7.81403983       3.67559281    -151.40722099
C        1.53217762       0.72493207       0.99784982    -154.48317874
C       10.81000469       7.26192019       0.86131167    -154.35060470
C       10.78183900      11.64477816       7.02791073    -153.91614635
C        0.07439899       2.76994269       0.33524140    -153.50484585
C        2.65627100       5.26705651       7.43051798    -153.08585311
C        5.72669178       3.76679200       5.29869337    -151.25441178
C        6.87905895       7.04267220       9.43059442    -153.57400108
C        9.20524486       2.84257294      10.04622799    -154.61302037
C        5.29368480       2.65612687       3.34890681    -155.56756193
C        9.04489859       1.89268647       8.91507217    -155.23985683
C       10.03126234       5.86155080       1.74606873    -153.70667552
C        3.83191540       1.22115391      11.20375987    -153.12884689
C        1.01234224      10.78018149       0.55253761    -156.32592915
C        5.62166798       5.78614602       6.68458956    -152.00174534
C        8.59403132       8.85540174      11.52189406    -152.69479630
C        2.87614357       7.73922358      10.23621729    -154.70377739
C        6.08279261       1.67733003       4.20252547    -153.98808484
C        0.99011476       3.78730671       8.13811945    -157.84651084
C        7.06588938       9.95705865      10.89981061    -154.47340233
C        5.78528123       1.88576816      10.14761247    -152.75099494
C        7.83316127      11.12351467       0.76742323    -151.46291813
C        1.54605028       6.61921393       6.11611101    -154.50389343
C        1.93405221       6.15095479      10.32354895    -155.58393115
C        2.82358362       0.63305786       9.97573569    -154.90465525
C        3.09322959       6.14926125       7.14457315    -151.54933918
C        8.10267511       8.15304906       8.72718478    -154.25091024
C        6.55021098      10.03833679       1.57136937    -151.96853487
C        8.63238230       5.99051244       3.31806268    -154.49099794
C        3.10419559       4.03520084      11.03217135    -154.87290571
C        7.09022357       9.50393332       6.10454446    -154.87151145
C       10.22955121       5.11431318       6.99490463    -152.84737546
C        2.93039706       2.14186577       9.42259512    -154.58537887
C        4.59174050       4.69895030       8.35471302    -153.22181243
C        8.16739015       4.72913383       0.77933690    -153.49962515
C       11.85739610       4.77633689       8.89476164    -153.35487873
C        8.96115821       9.33773772       1.72494146    -151.55224632
C        7.74204615       2.73376569      10.12097217    -154.47447758
C        0.73855370       2.09208036      11.90483938    -153.81092275
C       10.56648255       2.29878891       0.83944212    -154.17937977
C        9.52441200       9.56177808       9.85848473    -153.57293860
C        6.30489922       6.46594212       4.80587183    -153.91579889
C        7.27982853       0.55618534       9.63263071    -153.03362660
C        2.81899544       9.57244381       7.29648772    -155.80762641
C        1.98820961       3.89648630       9.47370174    -153.88524862
C        9.13958096       3.32928091      10.90911910    -149.67169561
C        7.67387197       4.87123545      10.26294167    -154.81498755
C        4.23239672      11.94508809       0.65680112    -153.99514756
C        1.09782542      10.37172490      10.75583528    -154.77747423
C        9.03701941       0.53880789       7.54041823    -154.03584982
C        3.36088174       8.38098098       7.00912560    -154.49394505
C        4.77411486       4.08575495       5.28140961    -152.41206072
C        1.29653468       2.72864902       5.45774245    -152.16865136
C        7.03582595       0.21912188      11.98477229    -153.15385189
C        6.88841549      10.51905129       6.23435887    -151.46126559
C        7.11499017       0.85687723       1.30261222    -153.86359791
C        0.29674148       0.52274924       2.18020474    -153.01979277
C       10.99900910       8.49859226      11.26448726    -153.74427549
C        6.78267103       4.98728531       4.67853167    -153.30809962
C        0.68424616       3.27017499      10.81401635    -155.35070000
C        7.13515656      11.25024227       9.36518275    -155.68556535
C        7.08616387      10.10217502       8.57129458    -154.07063939
C        5.25028922       3.26862558       0.23988402    -155.14331694
C        1.70148406       9.77771105       4.67220190    -145.55300016
C        3.44047834       2.01943809       8.11802512    -157.07499355
C        6.15482232       5.43314402       5.55531946    -155.08599800
C        5.88389118      10.26476734      11.16294664    -154.34486102
C        6.13156911       8.19447485       4.64684677    -154.19882959
C        3.88626498      10.80063615       5.02254948    -153.79878829
C        1.72395656       5.82109790       2.87889408    -152.76427271
C       11.20903268       1.34170788       5.24220585    -154.71944740
C        9.16679779       4.30786155       7.31398769    -157.10334949
C        8.67171818       5.78433236       6.86320449    -153.96844874
C        2.92577284       4.01713636       0.29752940    -155.90089066
C       11.06867264       4.53053267       0.29925778    -152.56232418
200
Lattice="12.010956177378656 0.0 0.0 0.0 12.010956177378656 0.0 0.0 0.0 12.010956177378656" Properties=species:S:1:pos:R:3:gap17_energy:R:1 anneal_T=3800 density=2.3 run_id=482 time=1 pbc="T T T"
C        4.03801140       6.35210227       2.07365555    -154.24308229
C        8.68518247       1.16670585       7.49389980    -156.00169416
C        7.23638490       4.63726203       3.25564174    -157.40360879
C        0.12331408       8.92185836       0.73545247    -157.38875555
C       11.18047062       7.58626405       6.82774815    -156.34738319
C        9.57802891      10.16231388      11.45866839    -154.70372672
C        7.45563289       8.22495866       3.07103334    -155.98289838
C        5.86741215       1.41185187       5.95898368    -155.51951018
C        4.01627157       3.17355886       4.16717722    -155.71030006
C       10.42613453       1.64767498       0.98705197    -156.37766495
C        4.14603794       3.01078638       9.43954258    -154.75284327
C        1.95993582       2.04773591       5.92894428    -156.35491699
C       11.34964494       2.04560997       1.80161940    -156.03853890
C        9.09570494       2.42725810       5.37689671    -156.60646445
C        2.45107583      12.03533842      11.87191735    -156.17251896
C        6.52705386       1.65418492       3.23841803    -155.41177774
C        9.49987361       0.25452177       3.77874290    -156.10431442
C       10.41913214       7.37890691       9.23906771    -156.93159428
C        6.20847526       1.19888921       8.71054961    -156.10843717
C        1.59743315       7.30744172       8.70555305    -156.28201459
C        7.72094290       4.19124718      10.91027215    -154.78909514
C        9.32460974       6.33418193       3.08919391    -155.19150639
C       10.55329452       9.05303001       3.07493690    -155.99629646
C        8.48941589       0.97217520       5.97536662    -156.00652981
C        3.38620083      10.88948119       8.79795333    -157.97296293
C        2.04331588      10.53070192       3.17321055    -156.54812364
C        5.16824238       4.88832704       2.21906019    -156.14257263
C        6.68696773       5.92106509       0.91685754    -157.14782756
C       11.24614653       8.29027424       8.59069227    -155.24694708
C        3.14228233       8.98843509       1.39048437    -155.57249652
C        4.94116324       0.21070460       0.68778699    -156.24750536
C        5.88229372       8.68939831       1.37254001    -157.67553251
C        6.81777905       9.73973241       1.24619676    -156.73742840
C        8.87331007       5.47060619       7.89803244    -153.91663293
C        1.40709553      10.04840197       6.95632543    -153.90023980
C        4.38602886       9.19594838       4.86308001    -155.63925055
C        7.70672193       8.29842968       9.12239328    -153.57553089
C        5.61085812       7.99240253      -0.01307585    -155.78869066
C        2.45980779       0.25777434       8.97940285    -155.48119099
C        3.57342762       6.69418632       4.06057999    -155.09243208
C        1.11957606       2.87037831      10.05287005    -157.38603611
C        1.08709002       6.65607555      10.00100674    -156.56210686
C        8.42841225       5.78877642       6.33001412    -156.74941429
C        6.38312657       4.00098162       2.50770749    -155.50605084
C        2.71880004       4.36061367       7.30261331    -157.18737566
C        6.77978840       8.49650236       5.80055917    -154.88228901
C       11.86483088       3.42666574       7.90138350    -154.92420703
C        3.02154820      11.62182522       3.56993243    -155.89729536
C       11.57588331      11.64588316       1.02625934    -155.79496968
C        9.88376779       7.46949354       0.64618944    -155.94165382
C        2.77412250       5.86714791       7.51560360    -156.04761082
C        8.97746909       0.26469025       9.46235139    -155.18113528
C        5.73176041       9.75263217       7.38468418    -155.32928100
C        7.29266824      11.00518273       1.84526722    -154.91492954
C        1.44656353       5.33063050       2.06947574    -156.21520629
C        0.89783699       3.47028954       8.75327258    -155.70119158
C        5.74617356       1.12043244       0.77542133    -155.36028738
C        7.36784482       6.74404379      10.76926353    -155.99622094
C        8.66548450       2.85323867       7.96955769    -154.91134038
C        7.21565399       0.73389705       6.17558926    -157.12909167
C        2.19159113       2.02092745       2.51255991    -156.50120712
C        5.78420024      12.00737691       9.59150520    -155.71293085
C        3.51111478       4.63624110       8.75848533    -156.34341256
C        0.89952933       7.99602983       0.24269939    -155.57633301
C        5.98754573       7.27584089       5.02474748    -156.88216462
C        5.95739823       6.34042762      11.91474842    -154.90461063
C        3.31968416       5.20051582      10.98440377    -157.00586447
C        8.60908105       3.32156988      10.50857773    -155.57397811
C        7.45864764      10.70976125       4.67605742    -153.68865503
C        6.78950526       5.67493657       9.52061653    -155.68309497
C        7.09511203       7.49164174       1.73331310    -155.16749874
C        3.85402757      10.07621935       6.13367102    -154.35360866
C        5.83591942      11.03041775       7.87178850    -155.82759382
C        3.02500736       9.56480484       5.08121099    -157.26666580
C        3.63547622       8.17249480       8.02339079    -154.42319843
C        6.42351942       2.79968182       9.01172433    -155.05962886
C        4.38148871       2.57889642       1.11711982    -154.07417491
C        3.68903307       0.35222249       4.29525005    -155.55472770
C        0.85984033       8.75398122       8.83897075    -156.67913508
C        9.96593475       8.89813672      10.69982819    -154.65092479
C        9.62001921       9.23156086       4.04049767    -156.72960771
C        5.48010685       8.09193732       2.66549542    -155.10474924
C        9.32036987       9.01332179       5.72707614    -155.76451697
C        3.77721751       0.41891573      11.61550746    -156.69548305
C        1.25085701      11.49883303       2.39360340    -155.91789077
C       11.23295850       0.14854910      11.38376807    -155.90641926
C        7.77640950       9.68156335       0.38936878    -156.57879562
C       10.51915939       3.76163930      10.91595334    -154.58695606
C        8.32744815       7.21374425       9.80441141    -158.57993656
C        1.21674589       9.73414731       8.11491428    -156.84134366
C        5.11389280       7.24056471       8.57546238    -154.67071016
C        5.16741362       1.80469421       2.65798857    -155.22145636
C        6.00683533       4.64245076       0.98438314    -157.41984473
C       10.39840123      10.53506189      10.36873417    -158.02450769
C        2.35076032       7.13447194       7.74628602    -156.76518779
C        9.77999313       3.18653070       6.11191918    -153.73668886
C        0.64672753       4.83041021       6.30314562    -155.55554252
C        5.82312775       0.27109209       3.95371851    -154.92980782
C        4.52214902       1.78856350       6.73000299    -154.95547609
C        4.64263092       7.71305171       4.23993960    -156.94175145
C        0.21720733       8.84566085       2.53988484    -155.32664503
C        6.18450139       1.56335807       7.60771562    -154.98284429
C        2.37855367       6.70738636       1.90116621    -155.90724807
C        9.58449080      10.69843492       9.06213432    -154.53639825
C        0.71825638      12.11076722       3.81459561    -154.68499258
C        7.80958376       2.78216985       9.35760384    -157.78484437
C       11.84107321      11.87698597       7.27001558    -153.71076789
C        2.43227868       2.70060344      10.31026484    -156.41666778
C        8.60060131       7.82244750       0.54549319    -155.09144557
C       10.55113255       8.66368286       0.27802121    -157.35466512
C        9.72936695       0.34816999      11.08988399    -154.62905837
C       10.43976697      11.36141568       1.78891181    -157.08122472
C        8.95772307       7.99275084       3.68745963    -155.65020761
C        7.84429542       4.44899029       4.49256604    -155.36952645
C       10.18716455       6.39696319       6.77608903    -155.16263153
C        8.28914521       4.72440151       9.50859357    -155.37759045
C        8.51843436       7.64451719       8.26849837    -156.39895909
C        2.23752103       8.25550252       2.12551886    -156.75424472
C        3.04697540       9.69060760       9.83717730    -154.51599036
C        4.00213467       5.15739648       2.91740120    -157.55167902
C        6.24554107       6.14442083       8.07554236    -157.52495557
C        4.61414094       2.49789453       5.57912518    -156.05776228
C        7.89991816       6.08449817      11.97386634    -156.54900861
C       11.76032355       3.41995162       1.79149417    -154.73832726
C        2.15147454       5.80609622      11.48404754    -156.97220695
C       11.37933602       4.95013542       6.74990514    -155.58437377
C        9.68386945       5.21079720       2.34833411    -154.77616796
C        1.48323298       5.34612464       0.62241736    -155.77228182
C        4.22143071       9.33784581       1.05548680    -156.71381454
C        6.54565883       7.18831705       3.49934404    -156.01239725
C        2.19037802       3.51239995       0.24839858    -154.95356117
C        0.60582422       2.43923302       3.46787533    -156.26586724
C       11.00517072      10.17001290       5.13465974    -154.46704169
C        4.43611454       2.87279251      11.71539057    -156.72549413
C       10.80082832       5.85371966      12.02476878    -153.88901438
C        5.53040874       5.57095773       6.99549316    -154.64375777
C        7.57849296       2.91774952       0.57192930    -156.90288097
C        9.20913641      10.13727104       1.44480993    -155.12002376
C        1.27626018       1.29088953       3.32930493    -157.53925966
C        0.57943735      10.38402412       1.31391453    -155.95136293
C        8.41151283       5.24162932       2.97484960    -157.58723188
C        1.80380540       7.52336268      11.21063013    -155.62456807
C        8.43492218      11.46014574       1.19245253    -156.84444549
C        2.88641293      11.21323651       7.55099989    -154.72186248
C        6.25931764       5.58469826       5.62587182    -155.91736436
C        2.79953769       4.36758003       9.90250489    -156.46479422
C       11.95403626      11.72238094       8.52052427    -156.75357935
C       10.03986218       4.54199112       0.00146296    -158.21614164
C        6.32535387       3.41778965       0.43266347    -155.04360264
C        0.17769849       0.79832742      10.00845353    -154.03306332
C       10.36973108      11.28850917       4.37123136    -156.80496998
C        8.34437159       2.41850211       3.59719730    -154.08369821
C        1.31485138       3.78993711       2.43980955    -155.86488954
C        4.28595357      11.04724510       9.93856178    -155.22932551
C        7.66428722       6.94399018       7.22132316    -155.57475059
C        1.36512925      11.22389023      11.72902300    -154.61420185
C        2.27099556       4.94953488       6.15527873    -154.61526092
C       11.48500842      10.93267259       9.83887084    -154.34706622
C        7.99676250       0.80417075       1.84309324    -156.43707960
C        5.67694240       8.48383080       6.58677233    -155.46826412
C        1.51008948       9.15667255       3.35163330    -157.87006346
C        9.65164406       6.88296251      10.30547247    -154.79077051
C        3.58582292       1.90109414      10.89362497    -156.44258993
C        7.46061744       1.44617918       0.56926888    -156.15193328
C        1.08853134       2.95444299       4.70320218    -154.86962423
C        3.36882098       5.04263180       4.08010980    -154.59176561
C        9.37703756       0.68796715       1.52052700    -156.02703993
C        8.90987142       4.98796994       0.49346893    -155.13892738
C        3.47726790       3.19192362       7.92518921    -154.75033941
C        5.17280654       4.51770497       9.86262851    -154.98472512
C        3.49337459       1.45091150       5.41073157    -156.60873425
C        1.47548591       2.87860581       1.16268458    -156.70006397
C        3.53924443       2.41534323       3.13087192    -156.19551876
C        2.58030170       1.59206425       9.21101012    -155.53665724
C        1.46047222       9.23730210       4.87274883    -155.14127824
C       11.67055367       6.32022520       9.45270659    -155.90961277
C       11.69365074       4.91984379       8.56055679    -155.60786356
C       10.79710492      11.83329011       3.30886228    -155.82965043
C        9.14325631       2.87924239       0.93473945    -154.93311159
C        4.67618954       4.52767406      11.51124035    -155.98341609
C        7.46265930       9.41761057      11.03012948    -153.05704956
C        0.36750523       6.27870332       7.13534874    -155.17735727
C        7.08571947      11.40359816       3.85427980    -156.70884947
C        0.27307990       1.67112037       5.83070667    -154.63671245
C        0.12218025       2.91436243      11.08139225    -154.25562364
C        4.19928251       8.07243153       9.49116567    -157.46755430
C        4.90869763      10.38820393       0.33633800    -155.31499519
C        1.07391881       1.77446263       7.19127175    -154.85372741
C       11.66962882       8.43933020       5.36352851    -154.71662238
C        7.66929579       4.70582056       5.82115796    -156.77478459
C        8.17148588       0.51267806       3.46359943    -156.13099710
C        7.15559921      11.35971012       6.35293103    -156.55164313
C        5.91732968      10.74687511       5.44047070    -154.15763115
C        4.77119620       8.04380942      10.70901657    -155.97006770
C        4.40748042       9.65111557      10.68997921    -156.49079508
C        7.40161962      11.17339617       7.99128551    -156.85298364
C        9.98939214       8.85314368       1.69200742    -156.94840015
C        8.68639557      -0.03551664       8.07124244    -157.80187533
C        8.66891963       8.82091828       6.76495487    -155.34935501
C        7.28281926      11.37228559       9.52860382    -155.06118798
200
Lattice="12.010956177378656 0.0 0.0 0.0 12.010956177378656 0.0 0.0 0.0 12.010956177378656" Properties=species:S:1:pos:R:3:gap17_energy:R:1 anneal_T=3800 density=2.3 run_id=482 time=2 pbc="T T T"
C        4.76640383       1.29427662       9.12037544    -155.59412780
C        5.17209789       0.23414518       0.50250117    -156.14500863
C        7.74136153       0.65081486       0.63307588    -155.17776874
C        7.84840317       3.47182694      11.05442765    -155.06151031
C       11.76697762       0.26759329       0.92957114    -155.27669477
C        5.42234617       8.31795949      11.67349635    -157.07511455
C        9.58145203       8.33139975       9.05078396    -156.59291331
C        8.01565574       3.86464526       5.45287802    -155.46990869
C        4.79486979      10.09411567       1.47643478    -154.36757189
C        5.01560715       3.85055641       4.08132291    -157.09406332
C       11.28137467       1.08302191       3.55174784    -154.66046261
C        1.20979155       2.60072033       2.25948907    -154.32856984
C        8.58062709       9.99777579       5.48022696    -155.98848039
C       11.18158764       9.03363232       8.18610322    -154.98130870