200
Lattice="10.649164796105481 0.0 0.0 0.0 10.649164796105481 0.0 0.0 0.0 10.649164796105481" Properties=species:S:1:pos:R:3:gap17_energy:R:1 anneal_T=2700 density=3.3 run_id=206 time=0 pbc="T T T"
C        4.24609888       4.52664048       3.68181029    -152.13959563
C        0.01285610       0.67719636       1.81916487    -152.24593312
C       10.11895353       5.97408561       3.69888090    -130.70412889
C        9.15347895       9.82918976       9.85142521    -154.11922288
C        7.97012246       6.37570821       6.43440641    -151.85044153
C        3.97870900       1.85347648       3.94619710    -116.08603867
C        7.01861959       2.04678012       9.22252814    -154.31018390
C        7.17798434       6.95048623       6.90616441    -154.19632403
C        8.83320532       4.68572835       0.13013386    -152.44915147
C        1.96654932       4.15548514       9.20430741    -155.86869613
C        5.20648316       8.79149254       8.46710833    -153.86196129
C        3.90054413      10.58037119       7.91661041    -150.56648202
C        4.47640837       7.18107260       5.95787758    -154.13175874
C        7.57858462       7.45861113       3.91534647    -122.32250764
C        9.16291411       2.07103892       5.51064461    -153.69207418
C        4.14800943       1.91306921       7.65259631    -151.51837691
C        2.94784855       4.74786623       1.31750402    -152.33389730
C        3.84744740       3.67782750       4.10791532    -151.31439952
C        8.93330747       7.12325828       4.38015057    -153.60406910
C        5.63988287       1.70306768       4.68742157    -152.25546786
C        2.62849075       6.98511731       2.67516604    -153.12390604
C        4.79345530       9.17792943       5.13018189    -152.68178910
C        7.06870261       8.30958589       6.07227091    -155.17870207
C       10.24420901       3.44840190       3.70594130    -149.46366309
C        5.78125053       0.26660397       1.67375053    -152.66920149
C        4.80601067       1.70328066       6.19056183    -151.69339659
C        4.15744459       5.37176885       8.77424089    -156.64833850
C        5.84858520       5.99647015       6.06217550    -154.11570004
C        0.90422271       7.39573846       3.11331528    -150.85334013
C        1.44250392       6.00427599       0.55682779    -153.54736447
C        6.65703784       2.76200998       6.36317414    -154.32108707
C        8.36298080       9.87838890       8.19052822    -154.11616981
C        4.51726921       0.40648927       0.45932191    -153.86250148
C        6.17922047       5.05727771       3.67531430    -141.71972304
C        1.23506883       9.05945748       7.03373075    -155.79030128
C        4.60703102       2.44829623       4.71765455    -151.75591355
C       10.49565709      10.46363505       5.71998589    -154.59627228
C        6.17263929       7.58528294       4.96996521    -153.87840667
C       10.19269900       6.93026347       2.85048324    -152.60651576
C        6.91048797       9.64338313       2.89683905    -154.21190617
C        0.90697339       2.88428369       1.56884561    -152.51937649
C        6.19525811       4.32592502       3.04279651    -146.15428908
C        4.57881074      10.15250905       5.84469826    -153.18770014
C        4.37427223       9.20957875       6.17559975    -151.17011964
C        5.50823789       8.35153295       9.72941773    -156.15139030
C        9.78714685       1.76754837       0.17518409    -153.40436384
C        4.14329185       2.83423261       1.04131474    -144.97348686
C        7.78041824       7.76209103       0.66990275    -153.49192527
C        3.04274326      10.63647099       1.37830010    -154.33701501
C        3.05085792       5.92927392       1.14553066    -154.97864574
C        3.40524083       0.04318481       4.06061173    -153.43965144
C        4.27748197       2.08029304       8.70620338    -151.94169630
C        0.18873195       2.57169875       4.44240559    -155.66383698
C        2.63248419       0.64675360       9.79564489    -154.65862914
C        8.37517409       3.84452953      10.41641665    -151.84303169
C        0.29357937       2.03277647       8.90134933    -155.05697412
C       10.00687107       6.79122797       1.09547958    -152.99300440
C        5.13503791       8.57927599       1.73507907    -153.33260854
C        0.92484908       9.34636727       4.07552056    -152.19890486
C       10.30340771       9.20973849       7.84933963    -154.23343149
C        3.31560681       5.75743900       7.88733585    -154.92048573
C        7.94591691       9.73068498       6.04431685    -152.08936934
C        8.77559334       5.94947539       3.01233990    -152.31392498
C        1.65546591       7.40645152       1.35980250    -152.57258979
C        9.56702862       1.51758053       3.42621968    -154.32876923
C       10.07109618       2.77102982       3.15894695    -150.37122202
C        0.13484931       3.23819803       1.02489905    -152.60310022
C        7.03602032      10.26662550       0.20309981    -153.45212651
C        9.53826522       2.79468162       7.11712436    -156.86546965
C       10.35430007       6.99212446       5.33154695    -153.83618294
C        2.37955587       2.63788331       9.03523063    -154.00802957
C        0.01819048       5.78281596       3.63533733    -128.86306093
C        8.03549768       8.23669235       6.84941501    -154.63888570
C        9.85368284       9.54006493       3.62655177    -153.23782288
C        0.35360765       1.07869650       8.07291885    -155.80733859
C        7.29120626       8.78202543       9.68160298    -155.33281385
C        4.56527565      10.47578574       1.53201015    -154.88038675
C        5.04863059       9.47045134       0.22357921    -154.29940719
C        1.26739970       1.87612726       4.78740658    -155.20921875
C        3.18550596       8.66377711       3.93057478    -153.10671298
C        3.62730786      10.18514874       9.82843367    -152.72189231
C        3.66276958       3.52312708       8.61036090    -153.20453534
C        0.95014830       1.53702590       6.44563063    -156.00135312
C        0.33479590      10.60185056       3.24493895    -154.50497936
C        6.24202924       3.94357741       9.69046309    -154.52311794
C        1.95813648       5.32803273       9.50218585    -153.60541648
C        7.23986663       9.64404338       6.99613920    -153.73700003
C        5.01314757       4.65265205       9.54226931    -155.54158739
C       10.51417598       2.87032263       9.92178424    -154.99921559
C        8.47454145       3.64270656       2.14048212    -151.49339584
C        4.42579289       6.82845745       0.80022616    -154.43534202
C        1.76753772       9.23559466       8.04847902    -153.73598955
C        6.94664188       9.57549470       4.47278765    -154.41180462
C        9.16874985       8.97720333      10.55370568    -154.27858605
C        3.26322357       7.85563329       7.83893540    -154.04542954
C        2.39486937       9.23755411       1.19251477    -154.76385268
C        7.25833229       1.90886279       1.39772418    -153.84550011
C        3.28000665       1.31845180      10.46179274    -151.61503341
C        4.02657700       5.83562517       3.14000208    -138.25738152
C        9.37014686       9.14590740       6.10160936    -151.38655447
C        1.25816687       7.77882086       3.95217128    -149.59123885
C        1.06287823       5.97734425       2.50685599    -152.29216081
C       10.46368829       5.62797710       1.63130296    -153.83098239
C        9.69463756       3.62385753       0.15261318    -155.82719672
C       10.52709342       7.07311136       7.73854572    -156.02130660
C        5.90186297       1.14049360       3.37570005    -147.14420910
C        6.42562084       3.40085337       2.57080422    -150.17417296
C        9.29441000       4.07151647       1.71512253    -150.78168576
C        7.08663580       2.89163161       5.11734965    -154.84851376
C        1.41994898       0.63772310       3.16243987    -152.56052990
C        1.25901881       1.59808821       0.92694803    -153.98168355
C        1.68650823      10.05437699       9.71681977    -153.56268319
C        4.99939950       0.23864459       4.22268137    -152.04300459
C        3.90298279       3.90438848       6.36698654    -154.15796442
C        5.96050792       8.32629443       6.67181889    -152.56294596
C        4.72320276       2.29591733       0.89251715    -147.52238237
C        1.41989574       0.24636843       7.42351148    -155.05904970
C        4.82099404       6.00181603       5.53132528    -154.80311635
C        9.45556381       9.74561511       2.39689271    -152.19719036
C        8.94807786       7.55698811       0.66133763    -156.68499857
C        8.66801548       4.10701014       7.76187804    -153.82244612
C        1.08247695       3.56868421       8.75707444    -154.10249364
C        6.89195842       1.62294336       5.91161761    -155.70127427
C        8.73919449       4.92628234       1.73127732    -152.65152054
C        7.65058362       6.05413538       9.76848952    -153.83915530
C        6.88368402       5.59349511       3.96747413    -148.13803908
C        6.80151506       5.57781954       1.16263322    -152.77627534
C        0.90241129       4.11386820       2.61306011    -153.51513526
C        8.80695513       9.84796423       6.71702459    -153.41692841
C        6.03784216       1.21597488       9.43400990    -155.88508544
C        5.45910265       4.17520739       7.18083831    -154.43691016
C       10.19026034      10.23411360       0.34364322    -155.11822720
C       10.19884356       5.87469695       8.36533426    -153.55619734
C        6.80749989       5.70862323       7.99251765    -154.28481215
C        7.55278169       4.85191922       4.69796424    -151.90695680
C        7.01150594       6.72473459       2.68816867    -153.14043412
C       10.07937058       7.77382641       1.32543765    -152.61749745
C        6.52441315       7.85031936       2.96684666    -153.13650917
C        5.19454545       0.70694693      10.27772193    -152.12015641
C        3.70097879       5.80473194       4.74460758    -153.31608434
C        7.86466378       8.59436585       3.23785726    -154.08303151
C        1.88807562       0.01961683       2.08668254    -155.48011455
C        3.18039436       6.28441292       0.10150656    -152.71504860
C        4.19036115       5.74874928       3.83050458    -139.27685568
C        1.86931179       4.16416421       7.55227053    -155.43755519
C        1.86740559       9.75393211       0.12315227    -153.01242566
C        8.00719220       2.25359755       7.56967127    -155.06767253
C        3.16070406       8.75978998       2.45774204    -153.75895600
C        1.90617920       9.48786273       4.36106727    -152.86947097
C       10.60270249       2.24799609       6.88338584    -155.65766974
C        5.31364571       0.34478055       8.71568114    -152.58912835
C        4.20204329       0.82691510       6.81559326    -115.85212408
C        1.50105302       9.80571900       5.73228567    -155.46252056
C        8.29672170       0.89473005       8.96770427    -153.77684609
C        6.13865780       7.17188237       1.87034476    -153.12053805
C        4.45113790       0.95747173       7.15376814    -115.84147573
C        8.80302559       3.97984846       8.96565963    -155.10013714
C        8.53240901       2.03367100       1.06827097    -155.97693671
C        1.60660755       4.38117289       4.90397234    -153.36157569
C        5.96435227       4.94338490       1.86965256    -152.21723058
C        7.99525449       1.15582840       2.37660606    -152.38382463
C        5.34710538       2.22332198       1.75201124    -153.00543736
C        1.77780352       5.97354250       3.52283956    -148.15848062
C        0.58747715       8.54220624       2.97980670    -153.27993163
C       10.13606674       5.15043661       4.56034509    -149.08755663
C        9.03627424       1.35010111       1.97999921    -155.02365817
C       10.02634839       8.73475379       2.51149903    -155.04091189
C        2.85708572       2.64164247       7.33026739    -153.96326520
C        7.76473202       7.24695898       3.50994342    -123.21647633
C        7.77619052       3.54741783       8.10922185    -153.61583145
C        5.60445310       7.85214036       0.52231598    -155.90316153
C        5.36973486       6.36110820       8.86028615    -154.39049323
C        9.45452019       6.82551828       7.12175675    -154.49807207
C        3.11890609       4.45528043      10.20015341    -154.28770263
C        6.50723604       0.61249949       6.52182540    -153.88785394
C        0.99545624      10.00307997       1.76428973    -152.70084265
C        2.24734649       1.09482998       5.62742335    -154.19580940
C        1.66628546       5.21597157       7.27441252    -152.33526618
C        2.52665279       8.05719003       1.84324264    -154.82800136
C        3.02032677       6.85960626       5.45114772    -152.91319483
C        4.98516157       1.30918702       3.79182681    -143.53953519
C        5.57135549       2.36539248       8.93940944    -154.42975710
C        0.12946509      10.42636297       9.67824849    -155.19731542
C       10.06154388       3.84065323       6.33450659    -153.75295219
C        1.02696925       4.37257901       1.16342125    -154.64882997
C        1.04830911       6.73582037       8.68838733    -155.01688267
C        2.53359604       9.76022576       3.01107264    -155.24953407
C        2.63528492       6.92394851       9.03809525    -155.45486005
C        6.53873627       5.02887639       6.52327369    -155.46308453
C        0.93531188       6.15249107       4.05833281    -148.45686468
C        7.95174200       6.03537155       8.18059255    -154.40627340
C        4.45091427       6.12285444       2.31487285    -149.86772410
C        6.89725106       5.04875838       2.81388206    -148.34173360
C        7.71026154       7.76417826       9.04543253    -154.81102327
C        4.15814743       1.61441338       3.59037656    -111.44658098
C        6.88671903       3.11309164       3.81813025    -154.54993731
C        5.73288203       4.36238776       4.45504614    -150.71944303
C        4.23393754       0.92615360       8.75524278    -153.73312577
C        8.89801614       5.01369068       5.99710910    -154.34563321
C        1.31413888       0.67112101       0.25857876    -154.25495199
200
Lattice="10.649164796105481 0.0 0.0 0.0 10.649164796105481 0.0 0.0 0.0 10.649164796105481" Properties=species:S:1:pos:R:3:gap17_energy:R:1 anneal_T=2700 density=3.3 run_id=206 time=1 pbc="T T T"
C        1.15661644       6.88830576       0.94830067    -156.94067727
C        0.08969962       2.13557286       0.16849002    -156.68922273
C        3.01045499      10.40061329       8.02385815    -156.66724106
C        2.99386359      10.38791949       2.73694184    -155.32792100
C        6.82035344       7.40645152       9.07628316    -155.19191331
C        5.77710801       1.95008571       5.07083410    -155.56297889
C        5.10169538       5.46898507       3.61781946    -156.74525891
C        9.60107400       2.29375555       3.29787595    -155.13186175
C        9.49236732       2.04137035       6.12125707    -155.76453287
C        2.97261851       2.20145924       8.17489525    -155.29488468
C        2.76073208       4.26133784       6.02457330    -155.74976681
C        0.37412220       1.23336497       4.40432417    -155.87612106
C        6.89732560       2.57627789       7.58845639    -155.19683959
C        9.23129240       8.87437499       8.38940138    -156.17009490
C        8.56889305       5.25104992       4.17401469    -155.52973389
C        7.69859006       6.78873607       4.92841217    -156.16556489
C        2.44709288       3.07982365       1.53394829    -156.57570003
C        7.66236160       1.34818426       8.31186481    -155.20996849
C        6.89364099       5.13480363       6.63892362    -156.25849621
C        6.45694004       0.74644256       2.60148447    -156.10239306
C        2.58274194       2.15536966       2.79660911    -156.56104485
C        6.11992592       1.55288251       6.53509426    -154.40547615
C        1.45243959       5.27316823       5.51664009    -155.61737029
C        1.57328631       4.29829044       3.34754366    -155.72825595
C        5.09901179       8.00818258       7.93677993    -154.35950747
C        7.01696897       0.55843475       1.09917484    -156.06167150
C        4.58488076      10.67791754       2.59809803    -155.39100997
C       10.29284374       5.32228218       3.64304733    -156.39708600
C        3.29727960       7.32230182       6.24746032    -154.62093357
C        7.79812780       8.19106068       1.27607877    -156.44235114
C        4.19293825       8.65281912       9.89948489    -155.87950369
C        3.17417525       8.95742783      -0.01731075    -155.32098468
C        2.73515278       5.57154718       2.96931727    -157.27830440
C        6.52073918       6.04299635       2.18927660    -155.18828455
C        7.24596861       9.85277766       5.50390368    -154.96656689
C        1.31199840      10.66077239       9.58574985    -155.38669261
C        1.89135556       0.87410900       5.21467237    -155.60340459
C        3.01911276       9.25682910       9.15425634    -156.88103303
C       10.22764956       1.10578797      10.11976287    -156.44628220
C        5.66193729       0.33066402       7.90488568    -156.40700765
C        9.52495377       0.03071294       3.47261810    -156.03321989
C        4.01921843       4.33823546       0.92363188    -155.65066416
C        1.05497868       9.96619126       7.04018415    -156.28565702
C        9.10967894       6.71095457       2.57301925    -155.26430618
C        1.57869608       8.95961091       6.49046361    -154.50316942
C        7.78384727       0.19129201       6.45744055    -154.89097774
C        8.47865203       7.39772985       8.71192198    -155.03608414
C        9.66237059       6.22874974       7.97122997    -154.37208487
C        7.15650497       4.95483275       1.62227247    -156.44656886
C        9.94700147       3.60238882       4.21219194    -155.76981466
C        6.01498905      10.61626953       9.17496897    -157.00279066
C        1.90677555       2.12356060       0.61324813    -155.50537293
C        7.05811734      10.15366981       3.62766994    -154.88719139
C        0.38575215       7.50185739       2.12150531    -155.23546674
C        8.44521365       0.61983144       4.05176227    -155.08523355
C        6.23306265       1.48545200       0.55114007    -157.47302128
C        3.07349805       6.46083763      10.08285286    -156.90435577
C       10.11752654       5.49440463       2.14393245    -155.99389793
C        0.23892999       1.21736992       8.79206760    -156.28058630
C        8.58265177       7.06218532       0.12379974    -155.29628089
C        4.80190009       4.29712968       6.18973120    -153.80035650
C        2.64085443       0.88636087       2.94237488    -154.90625831
C        7.31679620       1.45042689       6.72546938    -157.46439981
C        7.09972363       8.08280127      10.10149955    -155.64188264
C        7.68925074       3.27126369       9.98892723    -156.56649216
C        5.74327561       9.17066670       0.50502706    -156.21019677
C        2.00680316       6.31612613       6.98895101    -156.20152246
C        1.04728146      10.08354506       0.36629080    -156.79440381
C        9.72129242      10.11519437       9.06817914    -155.93060045
C       10.46973702       3.58915191      10.35982699    -156.60049778
C        0.47475681       2.92803046       6.41477999    -155.88089789
C        5.27382848       1.41762747      10.25508180    -155.09135316
C        2.18497433       8.31663563       8.74710682    -155.45605896
C        5.78705433       3.08548901       8.16608839    -155.92233984
C        2.38340022       0.21901179       6.89375813    -155.66868565
C        2.73042456       3.59136693      10.24785102    -154.29398547
C        2.04580040       5.65214006       8.45769447    -156.16921365
C        7.93737628       4.25933579       2.34425389    -156.54623324
C        1.60245437       8.44065581       5.00568251    -157.19375757
C        6.02296527       7.81741344       0.28859343    -155.66713550
C        0.48637930       4.40694387       4.22948619    -157.23815617
C        2.40198301       0.96925929      10.30667701    -156.41743848
C        5.46724926       4.18411009       3.89333465    -155.50418815
C       10.56656987      10.05238560       1.02577121    -156.38535473
C        6.88945587       9.86470472       0.58687973    -156.75377102
C        8.83435543       1.57468135      10.06046832    -157.29933562
C        6.39511099       5.18268228       7.80243006    -156.58132973
C        7.70118845       8.70006946       3.59774578    -155.89338125
C        1.02008350       3.63485812       9.83682521    -155.15393123
C        2.02046604       9.53235494       0.84605165    -154.03127624
C       10.24722272       4.78239082       7.16409783    -156.87089646
C        0.74824440       9.14940032       2.42350498    -154.39788063
C        3.95722964       2.02101979       2.53953828    -154.68002866
C        2.59537185       6.41782566       3.98865532    -154.90548084
C        3.51828171       7.13319395       7.48250785    -155.47516045
C        5.01190162       9.46338030       1.89537030    -156.03113099
C        4.56086690       2.66006552       6.82478349    -154.67182848
C        1.01948288       7.04856504       7.61905145    -155.43593270
C       10.12340488      10.00021534       2.16364406    -155.41198721
C        7.03157962       3.43782727       4.56226194    -156.25393727
C        2.73378969       1.74895493       6.95134881    -154.70688516
C        0.46095868       5.48864343       1.09428688    -155.78157172
C        1.51417279       2.34022851       4.70625994    -154.52798633
C        2.53731260       6.95851570       5.37689110    -156.06681882
C        2.23808172       2.26416152       9.17997407    -155.75856163
C        6.48452138       2.91710441       2.31461727    -155.26541765
C        9.79110834       3.37441150       8.71310404    -156.73681827
C       10.35269205       2.47826298       5.11102405    -156.61950998
C        4.85095014      10.52854171      10.00326100    -155.28248172
C        2.85058973       0.02241117       4.78097448    -157.06015732
C       10.29778495       6.02352968       9.60288435    -156.45887965
C        6.15514271       5.15874295       0.69102111    -157.14039619
C        3.02157272       3.46737871       3.92392970    -154.71966797
C        6.14420602       6.88786914       5.27881229    -156.36056201
C        7.66642958       7.27003572       2.73718678    -155.29191778
C        0.16513766       2.60185719       8.03779790    -157.30673441
C        4.11367652       0.59875462       8.25709615    -156.93565841
C        7.20338260       1.82091134       4.24757912    -154.05768166
C        8.99903411       3.49278761       2.22493000    -154.16774755
C        9.93338118       7.90075380       3.91513349    -155.00055309
C       10.55635732       2.55824886       1.39825664    -155.88329868
C        8.02110001       1.75210708       0.40742001    -155.03515649
C        3.30993081       6.27109081       8.63420438    -157.08185803
C        6.59633761       3.78032571       8.87194698    -155.25724029
C        8.23751234       0.42991104       9.17985693    -157.42044229
C        4.08885332       0.16883825       5.09362331    -155.38783781
C        5.39971226       7.84260936       2.59496718    -155.40343427
C        5.68406625       9.58678282       5.53214527    -155.79570221
C        5.99537329       5.70492797      10.08527022    -154.61587816
C        8.65048695       9.95286916       7.92555571    -155.56956240
C        3.39876614       8.00373122       2.71497262    -154.46513404
C        1.90613660       7.19637545      10.12842064    -156.04612574
C        9.72285785       6.18329910       6.15414169    -155.37732143
C        4.56634057       7.65548224       3.62093966    -157.64780332
C        0.83112685       8.06676363       8.33611296    -155.44508436
C        0.17746088       0.50613031       3.35237838    -155.08137929
C        8.25336895       4.35493335       0.25645638    -155.59352140
C        7.57210993       9.32079863       1.99749579    -154.58980417
C        5.26823767       1.36770418       1.86556329    -155.32004912
C        1.04186849       7.73524448       4.10916127    -153.62128131
C       10.27403732       8.24660673       7.68089114    -156.38619244
C        1.17907553       3.55280631       1.75751686    -155.37421460
C        4.60432614       7.16838944       9.60716532    -154.90454827
C        2.62616923       6.74187974       1.85212404    -155.74479836
C        8.62583413       2.70837014       8.88083903    -156.16807944
C        9.72422094       1.41361273       2.11691552    -155.05964296
C        5.75139027       6.08227047       6.21860108    -155.46160560
C        5.56795841       6.66342734       4.07156972    -157.29319549
C        4.05433937       0.59752251      -0.05459433    -155.92409205
C        5.67586640       9.75777646       7.05328262    -156.68862521
C        6.50556412       7.31716892       1.71981882    -157.29262589
C        0.31741007       6.09104539       4.65664548    -155.63274046
C        2.51300056       4.41041550       7.52752187    -155.79715348
C        8.26432694       2.14184522       5.88185319    -154.67232397
C        4.34616908       9.52682802       6.20626935    -155.56943142
C        3.89544318       8.77897977       4.37960746    -155.04013780
C        6.67545025       5.86911679       8.91179616    -157.87809469
C        0.54687295       8.76720180       5.73852608    -155.75473781
C        4.24641836       2.70912623       5.11487904    -154.24607193
C        4.62662549       5.84596551       0.93209371    -154.95321535
C        7.22822710      10.18626690       9.76044940    -156.14134719
C        0.89175361       6.05541328       9.23932187    -155.93943988
C        1.32799345       3.15368626       8.64427849    -155.97269277
C        6.26778957       8.88302211       7.88484395    -156.19456852
C        0.49979299      10.55438723       5.61813727    -156.17311312
C        1.70683748       0.55761902       1.45407956    -154.72199905
C        8.42417090       8.09837035       4.77725792    -157.19294510
C        8.24486026       9.06616645       5.63926522    -156.20823863
C        3.70371562      10.29132091       1.22618743    -155.08302282
C        5.44170191       0.31098223       5.10454936    -155.85622364
C        0.61281790       4.39660353       6.37763571    -156.70961554
C        9.58049981       7.30210035       9.86419356    -156.54635534
C       10.04634752       0.26219948       6.33123730    -156.09483490
C        9.71972699       4.83074868       0.43833347    -155.91629902
C        3.88549686       4.95021101       8.04842577    -155.95563773
C        9.09701708       7.95780138       1.14093022    -155.82391736
C        7.76853377       5.04078216       8.98634031    -153.50267011
C        4.95540780       5.18074413       7.18722781    -157.01550680
C        7.18813299       4.01492681       5.88060724    -155.08122051
C        5.70148829       3.84466797       1.04770743    -156.20949380
C        4.15936144       5.40786952       2.35409372    -156.16616005
C        6.87854047       8.51687188       6.59541113    -154.64996057
C        9.87717489       9.33776275      -0.00823807    -154.63143889
C        4.08861903       1.89780896       8.13682449    -154.32211257
C        9.74845844       8.14592952       2.41400592    -157.17647557
C       10.33688869       7.66290471       6.60428188    -155.01538950
C        6.94088068       2.67938311       0.66904017    -156.03245739
C        4.49846279       3.93661286       7.92452274    -154.28469415
C        3.57497787       5.41938126       0.29150065    -155.33805224
C        6.91451335       1.95928659       3.21632465    -155.01577417
C        4.32209132       3.31449930       0.15619343    -153.73436645
C        0.19952808      10.49074782       8.10085161    -156.34312364
C        8.88513065      10.09577030       6.52265603    -157.65169989
C        8.06926619       5.39223654       5.45464065    -156.32965345
C        2.50553549       2.70230011       5.24938865    -155.14492239
C        5.06727728       3.43540991       2.41105610    -155.75114187
C        7.96315791       4.02303083       3.79301952    -156.53692007
C        3.44953071       9.66789751       7.12851897    -154.19801676
C        2.58591539       9.37977370       4.15652876    -156.60615047
C        9.32860447       3.66858403       7.14125537    -155.02201594
200
Lattice="10.649164796105481 0.0 0.0 0.0 10.649164796105481 0.0 0.0 0.0 10.649164796105481" Properties=species:S:1:pos:R:3:gap17_energy:R:1 anneal_T=2700 density=3.3 run_id=206 time=2 pbc="T T T"
C        6.46942086      10.41970724       5.58637082    -157.67241171
C        9.31730570       1.44516621       3.65438869    -155.92901485
C        6.09537960      10.30713492       9.67133719    -155.55193437
C        4.95864515       3.76611973       9.86738831    -156.71237904
C        6.12874343       7.39253306       9.08062801    -155.66060509
C        2.94322682       2.67766859      10.20814029    -156.54808125
C        1.38832097       5.89589944       4.98992175    -156.60758271
C        7.53582822       1.42921376       1.69462289    -155.96211591
C        3.72032832       3.45410985       4.37129046    -155.28652741
C        2.33453120       6.37812557       9.56272635    -156.31476146
C        9.07818936       9.23324120      10.60144589    -155.81264024
C        2.54130604       2.65514561       6.23988876    -157.07729546
C        2.51108371       7.80893670      10.00999128    -156.70123918
C        5.34640254       4.03035745       2.85467901    -156.23695410