200
Lattice="13.850212649925684 0.0 0.0 0.0 13.850212649925684 0.0 0.0 0.0 13.850212649925684" Properties=species:S:1:pos:R:3:gap17_energy:R:1 anneal_T=3200 density=1.5 run_id=318 time=0 pbc="T T T"
C        8.69927701       1.11960964      10.33516718    -154.24289336
C       12.32306050       1.57936745       4.57793849    -154.28519277
C        6.19881502       8.59128691       1.11674819    -155.98502366
C        5.03894282      12.92614031      11.95065598    -152.11693407
C        2.39852443       7.53009746      10.57448501    -142.25766517
C       11.90177858      12.62373477       4.53450422    -153.08575077
C        5.82117513      13.05442098      11.06354986    -156.00939863
C       10.20112482       5.63657949       3.37416111    -152.92363955
C        4.43917321       5.52455897       7.12679312    -154.15475097
C        4.34086440      13.84307979       1.30911379    -155.28560049
C        8.94395487       4.59684403       8.05279064    -153.33920660
C        1.31995574       0.22195243      13.07713533    -152.78988591
C        5.81430542       3.29085208       4.69817218    -154.40844756
C        0.33988560       3.62009933       2.60104224    -155.40115765
C        5.90186646      10.57254598       1.29668322    -151.15169298
C        1.75919861      13.06503024      12.66136580    -153.91553590
C        8.49275649       2.35853886      12.92006007    -154.80005374
C       11.06854979      10.43761720       6.56080418    -153.59756086
C       12.94817600       0.48152619       8.04176587    -152.76503447
C        1.10983139       5.56466919       0.40447607    -154.97794442
C        7.56365653       8.45574873      11.12375674    -154.82330054
C       10.53919466       5.57788229       6.43255121    -152.86919413
C       11.71074260       6.11018751       2.67807712    -152.31644437
C        4.23697395       6.47457276       1.49909162    -154.54684277
C        4.32835766      13.47420708       0.24381083    -152.73291775
C       13.33603736      11.39667518       7.60375289    -157.82150432
C        6.99376183       6.13786024       3.40817723    -152.60142095
C        9.93925885       1.01824686       7.72926352    -150.52108983
C        1.90033228      10.64445628      12.27077595    -152.86810451
C       10.54498405       3.13151923       5.81109217    -154.77254434
C        9.18053035       0.21447331      13.55034170    -154.82973501
C        9.11676397       7.43145625       3.63051469    -143.77030223
C       12.47528819       9.35151123       0.18748340    -153.30938618
C        9.66818249       3.57594485      13.78130784    -152.96187778
C        5.90052299       8.73466431       3.55433852    -153.88405139
C        6.13481319       1.73075027       0.88430699    -154.33546310
C        6.39379832      12.07393673       5.83519154    -154.78418829
C        8.38867215       5.27193109       5.29395293    -149.06574712
C       10.01017194       8.25143039       8.24354962    -152.87543771
C        8.47731351       7.33170702       3.89267152    -140.47121701
C        3.08046735      11.58081376       9.57116175    -153.51481000
C        5.86755949       1.90189735       4.77207692    -155.42148116
C       12.43272649      11.43166082       6.24965915    -155.28684511
C        9.50271400      10.70423380       8.48678705    -155.34804284
C        2.21474595       8.46218907       8.80052207    -155.62655435
C        8.74732340       5.23769337      13.44453992    -157.44921244
C        5.59069374       1.61763559       2.46699988    -154.18250268
C        3.15705902      12.90030967       4.50896443    -152.01546519
C        6.34566883       7.44259182      10.99988044    -153.64162148
C        7.63580229       3.91062139       9.07127988    -153.07821453
C       12.64567351       8.45358809       8.96856670    -153.20525529
C        0.28486148       5.04656043       5.03467695    -155.99264130
C        4.43436718       4.70042977       6.20742986    -152.76916017
C       12.60588185       9.18167992      11.24581866    -152.85215679
C        1.30034383       6.72494305       4.12342991    -153.30250508
C        0.97701339      11.49272640       8.11705563    -152.94530439
C       12.61315321      12.24548546       0.67058021    -151.89148227
C        8.80423393       1.22021481       0.18837951    -155.74178393
C        0.66134073       2.10700515       8.65318351    -151.09399362
C        6.91657459       3.35482621      11.58358380    -152.70801012
C        9.27482260      13.41574533       8.43480720    -155.67078472
C       13.14450276      12.58390156      12.56649184    -152.03962180
C        3.02463714      12.65322187       8.13216621    -154.67840516
C        7.44599897       3.11732276       5.83369572    -152.44250904
C       12.56789071       2.82077586       4.36830167    -156.22625089
C        5.21970194       5.27317761       9.82161515    -154.81019053
C        2.25845723       7.64731181       9.82503615    -145.98178490
C       13.05594451       4.56786938       8.47592849    -155.57290090
C        1.15880713       9.20316160      13.72000680    -153.14345544
C        2.77030568       5.23412001       2.79752135    -154.43782614
C        8.68765669       3.53827228       5.85251816     -97.69303048
C        4.13205859       9.80146309       2.20183756    -154.51219917
C        4.17176715       3.43862000       2.01394557    -152.45115582
C        5.54374152       5.73253376       1.04402210    -154.75436793
C        7.26253906       9.86388600      13.54042494    -154.72024578
C        9.41308927      12.19946121       4.10971820    -153.58381512
C        8.09007541      10.47722881       8.70934612    -152.85188167
C        3.45758094      11.03151432       2.87142609    -154.67043805
C        6.93259929       3.01422178       2.99059332    -154.26523282
C       12.44571799       3.70248040       1.01490757    -153.18230550
C        3.74869856       5.83701977       8.86355439    -153.60562070
C        7.30077949       1.51862042      11.98929808    -154.23979917
C        1.34134462       4.73885026       1.53844007    -156.09440498
C        7.60001334       8.74179717       0.98410331    -154.15837909
C        3.80883618       6.12896840       6.28821815    -153.09445152
C       13.19026387       6.05679494       8.31529372    -155.41710425
C        9.74625614       6.73783760       3.00776758    -155.78412752
C        2.96174332       0.81903925       1.45324741    -152.15980753
C        4.16924641       7.58451495       8.82265471    -154.46401276
C        1.33320208      11.12084819       3.75711949    -151.38002865
C        0.11260264       9.15866087       6.76238018    -155.47745284
C        4.91419395      10.83859471       1.45078207    -157.32854500
C        6.41781459       6.55372672      12.87654270    -154.64038474
C        8.65229709       3.39182013       4.44656922    -153.11932232
C        4.74837920       1.03882966      12.09284227    -153.70955627
C        5.12492494       4.20376114       3.00153498    -151.30276003
C       11.09348017       2.53866088       3.78973674    -153.75461192
C        7.69895926       6.12880220      12.69935693    -156.03185916
C        8.22028126      11.33066507      11.15489202    -153.57508694
C        2.50338439       9.79539669       9.56733909    -152.82383561
C        0.67706765      10.93887025      10.65341737    -153.52343884
C        3.60557046       2.46313567       9.03252698    -152.01776475
C        1.61867435       7.46792386      13.48345902    -155.96245221
C        5.80798972       3.57712212       9.98226376    -154.30951319
C        1.91423789       4.27186264      11.65494009    -152.74982738
C        2.22499511       7.72841866      12.62649096    -152.61491158
C        3.37553228       5.16304072      10.67145034    -154.98343434
C       13.30866934       2.57810628       1.55550353    -156.02098536
C        4.39781647       1.05454134       0.28240030    -155.87422552
C        3.77063729       5.77116201       5.28567050    -152.61498768
C        5.62367109      12.61730827      10.13235852    -152.58525229
C        5.89811306      12.67549301       3.02283661    -153.83308894
C        7.42023758      10.04049006      11.84424480    -156.39684406
C       12.66786155      13.63772269       2.68289699    -152.60111930
C        2.53561383       3.85549755       5.92866663    -149.74665053
C        7.43746724       7.99752829       3.24611589    -154.48431769
C        8.53166174      12.51445659       9.21539134    -155.25801983
C       13.46682491      10.34398977      13.41210272    -154.60070317
C        4.19211311       5.45368743       4.26748597    -152.09592934
C        1.58864709       7.50098432       8.84937177    -154.42482647
C        0.38803587       7.16755430       8.32918548    -155.12748696
C       11.08082108       6.25633496       9.98403659    -151.92255425
C       13.10951713       4.90139635       5.92197697    -153.55728829
C        5.36136192       1.17600632       6.99485600    -154.30617772
C        0.42569044      10.50846104       5.55707927    -153.95542700
C        3.76477865       8.85129695      13.54151911    -153.18985468
C        1.23373816       0.68832510       3.93901433    -152.43874328
C       10.71147746       7.96204405       3.55252414    -153.20729192
C        4.53997505       9.44447386      11.10695643    -150.89798093
C        4.81207633       2.10965054       5.49145696    -156.11234939
C        9.34458612      13.06774489       3.20205836    -155.32201467
C        5.78969359      13.78459034       5.05721125    -153.34448517
C       10.69492646      11.48394537      10.46047006    -154.28672495
C        7.59155086       1.03409150       4.21499367    -153.94922776
C        8.58887697      12.45704746       7.38473948    -152.61781200
C        7.82168599       4.47967123       5.06402555    -153.37707294
C       11.76532629      11.85008959       2.71097137    -153.64673433
C       12.61333326       8.49308890       6.10804073    -152.74796139
C       12.74909304      10.83421804       8.65929145    -152.59725499
C        4.45395138       3.74124714       3.62241232    -154.63621114
C       11.89718031       1.53633484       1.07059651    -151.67748651
C        3.25865033       4.76192471       5.70763108    -155.74008956
C       13.03694201      13.62741813       6.16770745    -152.94429561
C        0.94375626       9.04874558       9.21155483    -153.15721234
C        0.52292863       2.59698412       4.94480292    -153.57303788
C        1.18398958       9.12500485       8.06869068    -153.67340647
C        4.92643754       3.52298164      10.64802964    -152.95732714
C       12.72218208      11.34319951       2.49834291    -156.08460287
C        2.06193656      10.00211112       1.65162401    -152.52660366
C        2.15642271       6.25337101      12.74810968    -155.05011946
C        3.86027587       3.17078458       4.87628592    -155.87053697
C        0.91513757       4.15784769       8.64688166    -153.74798572
C        9.67591091       4.89132725       9.91502098    -154.37955118
C        6.03469000       0.21603839       9.93657191    -154.87484046
C        6.06092231      12.09659568       4.13205859    -157.58045548
C        9.83865091       8.77392966       3.19877586    -152.73128782
C        3.71419768       5.73019308      13.08907421    -153.15263611
C       10.21973951       7.18266488       5.66412756    -153.23089170
C        5.21488207       0.15808633       9.11425709    -152.55697595
C        8.39069428       1.15253437       8.65904215    -155.62444310
C        1.13443075       5.23777647       3.60845130    -155.98949018
C       12.63966251       9.82833250       2.73372727    -152.82634111
C        8.83230831       3.33871841       5.96570209     -95.72155407
C        7.55919676       1.83778472       2.39125306    -156.92830321
C       13.17194004       7.22231804      11.47397322    -150.66392274
C       11.73805522       2.69324310       6.70116224    -153.54551933
C        9.93021466       3.79527682       4.96430402    -153.58760267
C        4.33627998      11.97501851       1.69286994    -154.46340935
C        8.89237668      11.53035743       7.25280236    -152.13976657
C        3.77477851       6.36544693      11.34947365    -153.60543923
C        0.38954139      12.73941175      10.85165546    -154.66549392
C        5.11276445      11.62931720       7.65257489    -153.03057907
C        3.43654246      13.52679633       7.01777810    -154.95497478
C       11.54273952       5.58939182       0.43009619    -152.37610242
C        9.67947041       9.72121496       8.89370630    -155.84287581
C        1.45333051       3.19359588       2.54399321    -153.52389028
C        3.31263846       6.39651296       9.94762438    -157.52000683
C       10.57192272      10.27526501      10.28994624    -156.30695710
C        4.81841973      12.26164866       6.30568326    -155.72902698
C        2.38574068       4.89695044      10.13511471    -152.42060625
C        2.68453132       3.59588916      13.55258543    -152.58796928
C        7.56837945       1.74005762       8.04711205    -153.90477432
C        8.94347011       1.52031014       7.62034545    -155.48056379
C       11.34581720      13.82075325       9.24249621    -152.96787626
C        4.66422531       6.84543990       7.35435212    -153.69046901
C        2.22467656       7.77093881       0.90047296    -152.42948655
C        9.25421349       5.79120327       0.71785514    -153.42425285
C        2.12424866       5.99754373      11.68865151    -153.96971309
C       10.07686072       0.03990911       1.14679345    -152.41236981
C        5.88535701       2.41851028       8.08533864    -154.63822073
C        7.93320790      12.88145953       9.96348287    -151.56524470
C        6.66753392       6.59101150       8.01675239    -152.68140153
C        7.79239279       1.47662657       5.28776189    -155.55386836
C        8.58041449       0.87082104       2.56612585    -154.68664852
C        7.76498322       9.64070367       6.03187841    -151.03719147
C       13.81467300       0.21198443       6.77906968    -154.05257526
C        9.98831631       3.38055990       9.67602171    -153.30432056
C        7.11269361      10.74117232       4.27020061    -153.21695246
C        7.97396908       1.78815940       6.84625706    -155.30632106
C        5.60835276       7.68685417       1.00711960    -153.63067461
200
Lattice="13.850212649925684 0.0 0.0 0.0 13.850212649925684 0.0 0.0 0.0 13.850212649925684" Properties=species:S:1:pos:R:3:gap17_energy:R:1 anneal_T=3200 density=1.5 run_id=318 time=1 pbc="T T T"
C        2.82023570       1.57227614      10.40973673    -156.30986388
C        8.73307153       0.34106287       0.23769596    -155.31649131
C        9.03576793      10.99260908       8.18828727    -154.49397665
C        4.71666222      13.63031282       5.91440091    -153.80951836
C        6.07475867       8.37206574       1.43302610    -155.87179465
C       10.33410072       5.84927721       3.56329961    -155.34215847
C        1.01769562       0.67055943       3.24743166    -154.60602161
C       12.58205948      11.86375975       3.38521358    -155.39318643
C       13.25909942       9.37228655      11.53111919    -156.52338559
C       12.13122121       9.40574866      11.00449256    -155.48605639
C        6.85168635      12.72244523      13.63812434    -155.09896699
C        1.99930590      11.04194353       2.51788556    -156.33406445
C        8.27263506       4.61610967       3.06406869    -154.53795776
C        3.71007031       1.71696931       1.04628384    -156.09656693
C        3.49420090      12.61863789       0.71177212    -157.75469408
C       12.40132805       7.79557834      12.65812485    -154.65403187
C        8.17313514       2.39734716       5.38740032    -155.18150536
C       13.03885334       9.03434136       4.45287107    -157.01422769
C       13.54147756       8.16843991       3.74693958    -155.74869314
C        2.36882957      12.37441709      11.57312689    -156.68788361
C        2.27456502       7.20654265       0.03017020    -156.94021971
C        9.41270147       6.25139043       5.52022386    -155.65721011
C       12.73317915       1.00428723       2.68216293    -156.56677796
C        0.39128928       0.96002195       4.89750444    -154.81477597
C       13.08310477      13.43904139      10.02925753    -156.01069679
C       11.90014426       6.81902755       8.12435469    -158.13542602
C        5.84039922       2.37808151       0.43556980    -156.37360972
C        1.84108107       4.42230365       4.49526657    -156.74700290
C        8.01769420      13.19477904       9.82232151    -153.95939739
C        4.42922875      12.49859810      12.21692632    -155.51286888
C        1.13739470       5.02679618      11.00971409    -156.53964485
C        8.18331504       9.79230810       0.19740985    -156.12985760
C        2.34024273       5.97290421      13.72387101    -155.77255786
C        5.04110345       6.16830301      13.62655942    -154.80014041
C        5.52311855      13.19817234       4.84487364    -157.62713004
C        4.45551646       8.85692014      13.33775478    -157.32244157
C        8.49029116      10.90956320       3.46679133    -154.94338030
C       12.10424099       7.86142225       9.13313493    -154.88753779
C        3.28919005       8.21230354       0.05695775    -155.59951764
C       12.13063950      13.52376314       5.36886873    -156.66838779
C       11.65257171      13.14903178      10.31076311    -156.20301601
C        9.16083535       1.54860613       2.40514483    -155.01644534
C       10.69671313       7.68160494       0.56900829    -155.14523526
C        4.67477917       3.22035449      12.94451954    -155.00939810
C       10.67139494      12.47685326       1.30936309    -157.46232753
C       13.30195198       2.31830399       6.84217125    -154.28004698
C       11.07672142       6.08309650       4.87671527    -155.17769594
C       12.79155780      12.55736455       4.50943534    -156.30322595
C        9.89600464      10.46954194      13.03732982    -153.84183366
C        8.38435088       7.11342767       6.55606741    -157.00614760
C        1.62800940       7.37922710      10.84460570    -156.32355339
C        3.33956327       1.31266637       4.61073579    -153.60147699
C        7.35404741       7.46597098       5.52662265    -155.32031556
C        6.22798357       7.70931922       7.55497245    -154.69566761
C        0.59476691       6.55367132       1.91112159    -155.47658544
C       10.59037120      12.94929787      11.22926766    -155.91667400
C        3.39267884      11.89778972       5.38623690    -153.60892041
C        7.71530251       7.54914151      12.84838522    -157.92094891
C        4.83089877       7.51784003       5.16852541    -156.24112419
C        9.09940966      12.45268464       8.18289954    -156.57758722
C        5.76179926      11.75286110       5.46450445    -152.35213270
C       12.94548906      13.39117505       6.42656792    -156.44690317
C       11.56178356       6.57387878       1.57338416    -156.37581428
C        6.98833255       8.17055900      11.65794559    -154.80014997
C        2.97494258      13.27829582       1.75181645    -154.87659875
C        1.03011372       4.65700935      12.67047924    -152.42255315
C       10.79316601       5.13164229       1.92152310    -153.72972022
C        0.72878572       9.44493091      11.59599359    -154.98168961
C        3.22939868       4.23600444       4.64392090    -155.31668846
C       13.84064215       8.80482949       1.01149765    -155.18461524
C        8.14510231       4.40686066       1.21657913    -156.88598436
C        4.49300898       7.51189828       3.07998259    -156.08883085
C        0.35719144      12.24684278      12.59462162    -157.83259240
C       11.06368837      12.47463723       6.09233459    -156.50724279
C       10.97808020       0.13249737       1.42651650    -156.56162062
C        1.19353515       2.27172573      11.65517555    -154.43297662
C       10.65010717      10.98673659       9.33788262    -155.32409412
C        4.52601404       1.51047649       4.07963554    -155.90071985
C        8.41025078       7.35547398       2.98413912    -156.49467621
C        8.47749356       2.22626933      10.16874303    -155.66927377
C        9.14809316       2.87439003      11.26716184    -155.85964505
C        1.48869011      13.35297617       2.47927117    -157.17533942
C        8.56131505       6.61365659      13.49700453    -157.45382641
C        0.40952032       3.55899219       9.23663757    -156.57277013
C        9.33234253      13.36612002       6.99186435    -155.88649371
C       11.70342969      10.26856151       9.64675621    -155.72106215
C       13.10403244       9.77462138       5.71238171    -155.76036862
C        3.93154906       4.41787158       7.66393207    -156.73824938
C        3.55235794      12.57455266      10.97395284    -155.82867170
C        7.77037095       2.43675101       2.88876655    -156.01736813
C       13.48614596       7.55301957       0.24115575    -156.76092765
C       13.81634888       5.23888449       6.05639329    -154.37326803
C        3.86474949      11.15982269       0.19912174    -155.82321680
C       13.06030732      12.67319388      13.59841578    -155.11643874
C        5.99930271       9.19149972      12.56071630    -154.26126834
C       11.30764601       8.87718300       2.16073012    -154.46999302
C        5.63608088       7.92398366       2.66437926    -156.39334922
C        0.82692695       7.74614693       0.44004619    -155.48199088
C        7.90898388       0.59443728       3.25865033    -156.70143225
C        8.20692966      11.68428870       2.45636291    -154.84867628
C        1.61331432       2.14549489       7.54729943    -153.93241003
C        3.55766257      12.56873557       6.97894210    -154.34546892
C        3.65464176       6.38950475       5.44598672    -155.80570359
C        6.87895742       5.45973998       3.76347673    -156.03858362
C        3.80638469       4.17827675       8.90723796    -155.25294624
C       11.60604884      11.82665503       8.82020322    -156.40829991
C        4.09924744       1.96486042       2.42403652    -156.42844443
C        4.30309487       2.06808605       0.00974673    -156.35199526
C        6.63980579      12.73370546       1.29119992    -155.59561476
C        6.16427259       6.16928637       8.27730259    -156.67315369
C        9.66901350      11.97827331       0.51124874    -155.06482625
C        4.04420669       0.43834954       0.36665668    -156.93642950
C       11.00949248       8.56483300      11.98557237    -156.63112970
C       12.82927192       0.16245745       3.68318705    -155.37856491
C        0.99191345       9.72747525      10.08972756    -157.33514402
C       10.99882782       0.92444629       8.16391090    -153.21606701
C        0.33613635       2.67987765       4.47285692    -157.26188696
C       10.28134526      11.71262623       4.90454035    -154.34765813
C        8.06604529       5.64688405       0.89586361    -156.02935967
C        1.08282763       3.70411472       3.93261553    -155.60427535
C       10.54322508       6.05265373       6.25483913    -158.04653967
C        8.39678837       5.80581524       3.55692851    -156.88310136
C        1.23968960       3.68795152      10.10586306    -156.16030618
C       13.63449559       3.31936966       5.57616486    -156.10510160
C        1.87332436       0.77577950       9.79948251    -155.03159111
C       11.09638872      12.33530409       7.62469442    -155.53765980
C        3.75457105      10.02055960      13.41695030    -156.01788661
C       12.09493365       5.65573434       6.24593345    -154.94137046
C       11.51285076      11.61453902      11.67327778    -154.47181234
C        8.67081483       2.65396390       7.75300279    -156.35116422
C        3.57922735       5.47917182      13.27276958    -156.88426280
C        9.73683800       6.88405429       0.14444110    -156.59960619
C       13.33326731      11.56246222      11.41013759    -154.76660956
C        8.76050880       6.39673456       7.79574454    -154.87945837
C        9.04568468       2.19976002       6.39478168    -157.00371333
C       12.40232527       9.12940922       6.67063637    -156.05181146
C        8.87999459       0.80919867       7.40760618    -155.69016738
C       11.68309758       8.88230757       8.13529636    -155.52383689
C        9.85856751       9.14974133      11.70559032    -154.22074836
C        7.26889630       4.84246370       8.34667830    -155.86267093
C        6.98100578       2.27125482       0.34715004    -154.73309097
C       11.69237722      11.22656687       1.70178948    -154.92141506
C        3.06927637       3.32121174      10.43292198    -154.39646139
C        1.63021158       1.28764734       8.80536964    -155.94330053
C        7.78416576       7.47300689       1.83199533    -154.80468546
C        7.96385842       8.57583007      13.72358016    -155.71265099
C        5.88352878       5.22017285       4.56609656    -155.89254213
C        8.68390328      12.37819820       4.74102474    -155.45969809
C       12.99120861       6.14107349       1.20707789    -155.97027103
C        1.80026449      11.79745878       8.66207534    -153.20008815
C        1.09419865      12.23346348       3.29777718    -157.64298142
C        7.76905518       3.39381456       4.33683399    -156.77690913
C        8.73409645       6.91150542       4.25154438    -155.71791784
C        1.00272354      11.81758314       5.87109129    -153.79756496
C       10.02295569       1.16286801       1.83321415    -155.31643942
C       12.85688925      10.35256305       0.73893516    -154.50589208
C        4.46115349       4.95129867       4.83319791    -156.82574653
C        1.14573945       7.54890605       2.97671540    -154.64984110
C       10.29811786       6.68454198       7.64585754    -156.50852321
C        3.79304694       6.65799112       3.91740800    -155.91806873
C        5.01872151       7.54246570       0.29214392    -156.53238440
C        1.42089332      10.58646544       9.30561162    -156.22777685
C       13.73841373       0.37012200       9.00791515    -156.39459416
C        1.96992960       5.79067696      12.05661011    -156.64533008
C       13.34491534       0.21998847       7.34785637    -154.99222690
C        1.33778650      11.32513883       4.58908791    -156.40885538
C        2.44447943       2.27072851      11.76042331    -156.40994950
C        6.64267279       3.60899146       4.00725433    -153.79359273
C        0.54373026       9.14895187       3.12319525    -155.20971688
C       12.60524474      13.48332052       0.98813650    -156.55841230
C       12.78464654       5.91625684       7.92646285    -154.51720990
C        4.97237869       5.43148554       8.88147656    -154.42567853
C        2.61202545       4.64350539       7.12597596    -155.52197298
C        0.06802213      12.88285840       1.32007208    -155.87517570
C       12.23296487       1.39064445       1.58839779    -155.01398453
C        3.72452993       3.54370156       2.28966175    -152.50643027
C        9.27523811      13.76558785      13.03590325    -154.81887511
C        5.57386573       7.65461088       6.20326094    -156.68138143
C        4.09232233      13.32691007      13.34429208    -156.65025320
C        8.12328822      11.27113685       0.27277855    -155.36620741
C        9.26587536       2.33202955       8.90305519    -156.80613764
C        1.98178538       6.09255619      10.84812366    -155.92618603
C        8.86498096      13.77639102       4.21865012    -155.39313140
C       13.80465930      11.89198648       2.51331499    -157.64183715
C        6.18463241      13.68714025       2.37157191    -155.71018781
C        7.10963271       3.53896479       8.46983439    -154.51540783
C        7.73318313       3.00057932       1.48996433    -157.26971535
C        1.63017003      12.55334799      12.71281934    -155.13549632
C        6.46426820       0.06492038       3.71606745    -156.55497401
C        2.19802875       5.40758008       6.01541051    -155.59995100
C       12.96633363       8.93135118      13.25954263    -156.15599007
C       12.21098458       9.06640460       3.00701967    -156.96510549
C        0.58555098      10.34757697       1.90706348    -155.78982685
C        4.44346677       4.30283171      13.16354681    -156.01642820
C        9.44098360       0.31184723      10.35893415    -155.83610378
C       13.69029809       4.31985363       8.43275737    -153.95029476
C        1.56803797       8.67455439      10.60002480    -156.91886094
C       10.01866212       1.86412782      11.41490206    -154.49211274
C        2.69530678      10.51001227       3.55996171    -153.95229844
C       10.11777424       0.92132030       9.24994762    -157.21568599
200
Lattice="13.850212649925684 0.0 0.0 0.0 13.850212649925684 0.0 0.0 0.0 13.850212649925684" Properties=species:S:1:pos:R:3:gap17_energy:R:1 anneal_T=3200 density=1.5 run_id=318 time=2 pbc="T T T"
C        9.41058239       3.89138345       7.40403283    -155.10957419
C        7.80735102       7.07806807       3.97411077    -156.33455981
C        2.94862717       2.21463515       1.80811756    -154.99268420
C        7.61920973      10.13237237       2.59320301    -153.98119133
C        5.94582704      12.20925331       9.47571994    -154.28795075
C        0.27816767       4.55226019       6.49989095    -154.60176747
C        2.31712673       6.58537446       2.25068726    -153.43100190
C        9.28683074       6.42586156       6.21963189    -154.75497902
C       12.48359832      10.23124904       6.48289674    -154.66637232
C        0.44983967      13.16412852       9.34552794    -155.37285511
C        8.79424792       8.15073934       3.37503367    -156.62867321
C        1.46284561       5.89746210       2.99848794    -157.72179252
C        7.14873186       1.08501181       6.07010500    -156.31690352
C        2.59539135       3.18583976      12.81277632    -154.63297356