200
Lattice="10.87342332846187 0.0 0.0 0.0 10.87342332846187 0.0 0.0 0.0 10.87342332846187" Properties=species:S:1:pos:R:3:gap17_energy:R:1 anneal_T=2300 density=3.1 run_id=100 time=0 pbc="T T T"
C        4.98276799       6.44829886       1.99254395    -154.04655773
C        7.17900378      10.66878550       3.03066230    -152.42405063
C        7.82532006       4.59561975       8.73515376    -155.43284699
C        7.57971117       2.19771458       7.58084201    -153.34707122
C        3.28251253       1.74241172       2.53521476    -153.93598288
C       10.11704625       3.74213213       7.79534203    -151.60319747
C        9.79240933       4.77722767       7.14530704    -155.09699940
C        3.87017757       1.00254159       6.37769772    -153.10781814
C       10.30222065       9.95225952       6.59931983    -151.05905329
C        8.81201799       1.15477930       0.93013220    -153.15786243
C        9.48516988       8.09850395       0.89880587    -154.72342966
C        0.67426316       2.71129898       3.63807347    -153.25023503
C        0.64988277       8.73942701       6.22809029    -153.45624077
C        8.44512694       3.77692709       8.63113859    -152.64619562
C        8.66313907       9.49885952       8.90433335    -153.05902322
C        2.36818811       8.38029959       4.30397279    -152.60589903
C        2.48294622       2.16419181       6.46035748    -153.11553672
C        6.09405360       2.49564638       0.09316327    -155.21406800
C        0.58471943       0.95549881       5.91678418    -149.62067142
C        4.07258634       2.13969399       6.01601504    -153.55158340
C        4.02642866       4.19141111       8.82788231    -156.10341387
C        9.33542109       3.31199038       7.25770562    -152.31233029
C        4.18884498       0.16396253       9.76520402    -154.42098080
C        4.91283013       1.72067575       2.36180541    -152.83743017
C        5.96536663       2.62320250       3.65758039    -150.28143238
C        7.20513261       3.98632747       9.64387837    -152.37464461
C        5.71330981       8.87437707       5.56184302    -149.42573037
C        9.47643852       5.37213440       8.55279557    -153.45529837
C        6.64375951       5.70555706       0.69126484    -155.11589555
C        2.83449487       3.41761481       9.32177495    -154.25449223
C        1.92584637       3.98068417       5.26806487    -154.70220482
C        8.57863083       4.19280291       1.81926508    -154.15074893
C        1.11866867       8.38422489       4.37270370    -157.80950043
C        6.95964334       2.91502344       6.82959719    -153.69300263
C        2.44045288       5.24749235       4.44552301    -154.07041877
C        0.58292640       5.60949036       8.68838716    -154.78990093
C        2.55466732       6.55845751      10.84345617    -154.47525275
C        9.83117308       2.43507053       1.19209689    -147.75692655
C        4.58522476       3.23469121       9.40817517    -155.00543636
C        8.65721306      10.36606940       1.32308902    -154.31507718
C        3.03476158       7.53436900       8.29379063    -155.43122677
C        3.83200098       4.21326669       1.41304486    -143.15748012
C        5.68182037       7.34117001       4.12976967    -153.77384366
C       10.30848375      10.35612021       4.80698823    -154.37541265
C        3.35035182       8.59647412      10.19716164    -153.52364908
C        0.86748171       3.98818683       8.25298267    -154.81080205
C        5.88638209       1.71817486      10.08002225    -154.23014701
C       10.21612489       8.99957367       7.14403485    -155.31161783
C        8.65816992       8.36315220       8.65769149    -150.79520907
C        2.70286120       4.46816148       0.65598928    -154.56069419
C        8.61513291       0.09693396       4.23182763    -153.48632413
C        5.11286850      10.12391826       9.91304996    -151.22391457
C        2.35194321       7.28894496       9.09989187    -152.67473195
C        0.39460197       3.36881489       4.92333386    -151.35363610
C        3.79051887       1.62153187       0.81349843    -153.78639771
C        5.88914394       1.14850534       2.60447847    -150.66165142
C        8.33420715       8.53374534       2.08628373    -153.99856562
C        1.85101547       8.99498508       1.19193379    -153.89196554
C        9.17127589       7.26178315      10.29023814    -155.34224580
C        3.29213551       3.56690692       4.89286652    -150.86310726
C        5.65302755       4.58841067       8.04899725    -152.15826748
C        9.79703053       6.42536681       6.61968576    -155.21705734
C        0.51286785       0.65760833       9.48785561    -153.27714746
C        8.21581731       1.11608079       8.80495026    -153.64967963
C        2.59153910       4.99321735       7.37153948    -152.49986612
C        9.22668686       1.33377760       8.29132236    -152.28308414
C        8.03005575       1.39322260       5.57535869    -153.90705482
C        9.14458164       9.52829388       3.09987164    -155.29587618
C        2.41106202       7.76177577       6.59726476    -154.38668984
C        5.74027590       1.22720718       9.03729357    -154.44229212
C        0.19786477       4.69117539       0.42879127    -155.90603510
C        1.38953651       0.28388877       1.17301404    -153.78558158
C       10.27379753       3.59610206       0.89205348    -154.19833528
C        5.60296631       3.79453116       2.43006876    -154.26598268
C        5.94666434       7.44659873       5.70332800    -152.48706368
C        3.69821438       6.61747845       3.24034539    -153.09903760
C        6.71184889       8.97833787       8.32132214    -153.53846945
C       10.07467252       3.91343204       2.57398939    -152.90550905
C        8.16196125       2.83709361       1.16451102    -154.78812840
C       10.80724767      10.43615948       0.61334589    -150.71152531
C        2.02139114       9.51494131       9.29649424    -154.58909779
C        4.63963537       9.81995171       6.44588496    -149.43217471
C        8.32363818       6.17045027       9.38728732    -154.16315856
C        7.01330368       8.90079949       6.56505768    -152.25691480
C        8.96540937       8.57415098       5.79740486    -151.51974686
C        3.29347294       0.00230305       0.45237029    -150.46180624
C        1.65050955       0.02396307       3.57524683    -154.11460336
C        1.67775835       7.05187171       5.33794836    -154.88747980
C        0.33135018       5.15186059       1.38622012    -150.68303817
C        7.02600384       9.79720451       5.26932619    -153.77501361
C        6.22881881       5.43812521       3.70349886    -155.32177414
C        3.07128541       0.30529419       6.59187154    -154.09963656
C        3.65428575      10.02412198       6.11364751    -151.48024976
C        4.85292844       5.22027617       5.15429624    -145.70938799
C        6.73503103       8.25670138       0.16745289    -152.88002983
C       10.33635233       6.45286569       5.31974625    -155.17632248
C        0.74658447       1.99368566       2.74338645    -152.90143394
C        3.17450681      10.45964608       4.18338652    -154.77681935
C        5.16340817       8.34442816       9.87197017    -152.13688952
C        8.22291766       8.78149629       3.19180643    -154.57533640
C        4.76830059       9.56341503       3.79059498    -152.80717374
C        4.96532702       4.50945874       3.28959113    -153.76319608
C        0.91355567      10.17172870       0.99978627    -152.35834829
C        9.67458491       2.15355760       2.00787548    -148.20136815
C        4.59838160       7.99903387      10.68299707    -153.40183941
C        2.82979755       2.73913494       1.87108781    -154.15296216
C        9.02028754       6.27640091       3.65243726    -153.88322654
C        1.40973933       9.79925958       3.51569309    -154.39539733
C        4.80124706       1.41169655       7.11573133    -153.95128073
C        9.22288116       2.06056809       3.00880672    -149.92746721
C       10.40228877       7.14757958      10.37075584    -155.34336460
C        7.49869330       0.38360350       8.05458619    -149.23853538
C        0.20963634       3.37886193       1.82801818    -155.49998417
C        9.44538402       2.01022414       7.03964998    -153.14009721
C        5.58775439      10.69942681       5.08620686    -150.49422313
C        3.40919878       2.04432319       8.15040280    -154.58672558
C        0.00411461       5.59677933      10.47633678    -154.76604414
C        2.55152490       0.22871485       1.09598670    -151.36930322
C        7.09686594       9.94451765       3.79120389    -155.39487598
C        8.71224345       9.58880448       5.87849885    -153.99067822
C        2.03029648       7.84585996       0.47059089    -156.87009492
C        5.57029167       9.95260747       5.81426954    -149.50066169
C        4.99871930       1.27574614       4.73320117    -155.35157148
C        4.32313176       2.18727609      10.68809670    -154.74462050
C       10.79577621       3.38498367       5.82724154    -151.79660053
C        8.94086805       6.36550861       1.38277324    -154.61281899
C        0.81788151       7.96862091       0.39441495    -154.11002300
C       10.21999583       7.96816422       7.91608053    -148.32649855
C        7.59571685       4.20433961       1.43099688    -153.60469303
C        9.49841371       0.63901913       7.41666419    -152.91460083
C       10.69726300       1.21605104       6.58145480    -152.44276416
C        3.85822767       4.30028670       2.13761717    -142.74732413
C        0.97125440       4.00605186       4.18958438    -152.14314306
C        3.54471426       7.38900220       7.15434285    -155.70731985
C        4.38712186       5.84857519       6.11914946    -137.09898325
C        9.24211625       9.74176092      10.71124622    -154.30694716
C        0.94569207       1.52532382       7.51002340    -152.74265121
C        8.11343316       3.23615912       5.64037088    -154.34405526
C        6.28665455       5.54356480       8.61220796    -154.07015151
C        4.97983216       8.63789099       6.11283200    -148.21151631
C        4.93860014       9.40017233       8.51432540    -143.50857933
C        1.97806055      10.71744407       6.39561712    -152.85518793
C        3.70280296       2.92497262       3.24692381    -153.33197189
C        9.41703701       3.86309897       5.58290484    -156.38681609
C        4.19121539       8.70700246       8.15727480    -151.79038990
C        6.06824009       8.57209590       7.15509312    -153.56662688
C       10.58484267       9.38403617       3.13998370    -154.81221393
C        6.95705546       1.20339438       7.85151414    -153.71015681
C        5.84897751       5.77520133       4.95672614    -153.94425169
C        4.21177703       6.86323956      10.35909953    -152.98962793
C        1.92654227       5.46238382       5.63891384    -155.15746001
C        3.67265096       3.53486294       6.86775204    -154.03050799
C        7.50005248       8.70321851      10.52528893    -153.64104727
C        8.10946436       0.49659794       2.50088737    -154.47295489
C       10.84993673       9.97924736       9.08769189    -154.24183618
C        3.53257952       1.09949882      10.53731494    -155.73922802
C        4.32007633       7.05109970       6.06908822    -155.67780190
C        1.07061248       8.86560222       2.89152597    -153.85271689
C        2.26711964       2.88934041       5.04036451    -153.47618910
C       10.12651701      10.62499823       2.03277562    -148.09738413
C        8.26797712       0.09851137      10.29859980    -156.00088400
C        1.38263189      10.64784329       8.92463403    -156.59283223
C        9.34080344       8.48485843       7.88615686    -152.09195736
C        1.47880732       3.50516762       1.28136770    -154.93070249
C        1.21733411       8.91730535      10.45163236    -154.68122398
C        5.24615492       3.68947214       8.27592560    -152.35625134
C        5.38316005       1.77632593       3.34382776    -151.44417755
C        5.84752047       4.53491343       6.05577915    -150.19225831
C        2.45987281      10.42686271       7.62771734    -153.96194673
C        5.90523660       5.15019696       1.65821880    -155.37173629
C       10.73174262       7.73428776       4.11256792    -153.68452317
C        2.38856490       2.95397204       0.14801665    -153.79309462
C        6.39673708       7.30843014       8.54028026    -154.60415310
C        5.94441355       1.89809740       1.53453361    -153.30709721
C        7.05674301       6.15510787       8.17351970    -154.06912265
C        7.40813943       5.16453900       3.55495702    -153.08097968
C        5.97444594       9.20437459       3.97576938    -155.24754709
C        7.19124725       0.04123235       0.24473901    -153.44262016
C        4.68083477       6.04357917       4.16360777    -154.13287646
C        5.34423320       3.91469336       0.07473837    -154.33398171
C       10.22050688       0.15827681       1.25915329    -148.06362566
C        2.72462980       3.19343744       3.92713256    -154.06595196
C        9.11989897       5.19486498       5.10227778    -154.85348651
C       10.55578889       2.42053277       6.30522635    -152.85563750
C        3.66874740       5.09934196       7.64074370    -155.08232556
C        1.05873001       2.63621799       9.39191940    -154.02281107
C       10.51586168       1.41178354       7.81995946    -153.52879990
C        0.77620911       0.16752792       7.93715322    -153.86939816
C        4.98995532       5.52102419       5.99455090    -133.54607945
C        4.44107578       8.14759745       5.14217237    -151.21852239
C        7.89775881       6.16498094       0.24967990    -156.54815684
C        9.71078254      10.06869214       7.81313095    -154.89581271
C        1.73092939       2.40036257       3.61415194    -153.80468905
C        2.80837690       1.04698888       4.85126481    -152.93469799
C        5.24303425       9.33699774       9.24814012    -143.84758255
C        5.74001493       2.11907798       7.21699552    -154.52380411
C        2.01322520       0.38951973       2.13560558    -151.90633964
C        4.41317458       1.31487959       9.40393453    -155.35592099
C        1.35576366       1.23946153       0.18023243    -153.14026061
C        8.86535213       5.73904720       7.68005112    -153.97439771
200
Lattice="10.87342332846187 0.0 0.0 0.0 10.87342332846187 0.0 0.0 0.0 10.87342332846187" Properties=species:S:1:pos:R:3:gap17_energy:R:1 anneal_T=2300 density=3.1 run_id=100 time=1 pbc="T T T"
C        1.52176822       3.08285473       8.39820812    -156.78020581
C        7.58910581       1.54380864       2.10066927    -155.51779569
C        7.27557065       2.64392725       9.95296630    -155.64371719
C        6.56450313       3.64246633       4.81667645    -155.48589899
C        6.64304187      10.87918624       6.19473062    -154.84839833
C        6.78210208       1.93915544       1.24995438    -155.16718597
C        6.78701687       6.06797913       1.42850686    -152.03257850
C        4.61577908       4.28522701       0.82397497    -156.64294749
C       10.23352237       7.07382515       2.32327000    -154.59869172
C        4.10152052       6.51085366       5.98988620    -156.04074160
C        1.52987979       4.45095973       1.57997365    -156.32588477
C        0.87019354       7.43381158       3.70318353    -155.44157060
C        4.48042670      10.78653380       5.27259909    -156.51732228
C        3.20225579       3.34894914       2.39325135    -155.75872736
C        8.76172840       5.32031167       1.54611381    -155.71515657
C       10.93529311       2.48271788      10.75882832    -157.60032049
C        3.57370280       2.29420533       3.69016804    -154.11402837
C        1.16503294       9.74014078       8.66343266    -155.16369438
C       10.66623025      10.23943751       3.71899349    -156.18547223
C       10.84970839       5.94637076       8.02302064    -156.53483690
C        7.48540597       7.13499903       3.61955603    -157.16120311
C        9.95333599       8.93083188       6.94841109    -155.94361883
C        6.16364351       7.95353947       4.13951226    -157.16467962
C        1.90976458       9.44325283       0.04310192    -157.20073111
C        2.37813729       9.59445866       4.96614252    -155.17874791
C        9.81673318       3.71412219       2.31320121    -155.80211237
C        5.12729753       7.02925499       2.48889398    -154.90163220
C        8.23835792       9.73579141       2.40066702    -154.94156485
C        3.07730928       4.61517016       6.13874337    -154.73031372
C        3.33156254       2.20575004       1.55150703    -154.91283878
C        1.08912557      10.67225412      10.34322433    -155.64385238
C        9.42065786       5.43822307       6.05602924    -156.87675699
C        3.27092146       4.60678676       7.84184766    -156.81461589
C        2.87517234       9.21633536       6.01935318    -155.79403833
C        2.71438703       6.90571116       4.75616584    -156.51803141
C        6.27182320       9.33191985       4.39115590    -154.60861770
C        6.18818482       3.82383504      10.30620033    -156.73863463
C        6.53063242       5.20268297       9.55446621    -156.89454814
C        0.23835849       7.95929151       6.06305347    -153.89126549
C        2.59495335       6.34504483       1.30363647    -156.71262840
C        4.00745453       7.67117841       0.08427969    -155.03083419
C        6.39395349       4.74615142       8.02833775    -155.31029274
C        5.19713753       7.55845363       6.16801462    -156.24653236
C        9.55478153      10.48631858       9.61886949    -156.48995281
C        8.79329395       7.42804867       9.14089555    -157.35766980
C       10.30649391      10.00096159      10.56621650    -155.71086989
C        8.69750997       2.83267900       3.37476265    -157.18311516
C        9.88009261       6.29253707       7.13111722    -156.94526106
C        1.37496613       2.28290785       0.28835123    -155.96818719
C        7.09329946       7.70498388      -0.08544945    -155.45734207
C        9.77860008       1.37763012       8.11269377    -155.70618972
C        9.90532983       9.87076322       5.83012299    -157.89431528
C        0.38697209       3.34718765       5.89520043    -154.70464382
C        4.02131815       4.79476650       1.87576338    -156.73346784
C        3.11259354       0.17931797      10.48379595    -156.73214470
C        6.23293983       1.02778316       3.17116867    -156.01575770
C        2.41242119       8.54206351       7.23928604    -156.46682090
C        1.59145599      10.27713567       2.04817239    -155.43557163
C        3.84985514      10.59378063       9.28659942    -154.65528031
C        8.11527077       8.71931118       5.31515766    -155.38129217
C       -0.05378506       3.66427842      10.26601215    -154.30119626
C        6.38162302       0.40864065       8.84868317    -155.54378827
C        0.51593524       2.66315146       7.24539690    -156.28410135
C        6.52036791      10.63387094       2.49156884    -154.78661902
C        4.26873202      10.36658045       1.93845954    -155.98018008
C        7.50818580       9.87176357       7.16759756    -156.45645171
C        8.45505437       2.05007523      10.53375933    -155.84137466
C        7.70432061       3.65851551       3.17903016    -155.85306199
C        5.59094030       2.78539049       9.91799737    -155.15661618
C        7.58896446       8.18408866       9.77359831    -155.76294156
C        9.32809241       2.65313704       6.37184782    -155.47000399
C        5.90270309       1.44148973       5.73862314    -156.11527869
C        8.55221928       7.03366960      10.82220950    -155.15520083
C        6.07059962       8.40515623       2.42948159    -154.91846894
C        8.82348945       0.80180515       7.30040555    -155.30355343
C        1.68048758       1.78363287       5.25483191    -155.78141765
C        3.71675356       2.00492878       8.20898880    -156.45178025
C        7.41361963       7.42826613       7.32704544    -158.37098824
C        0.26973919       8.29319259       2.80541933    -155.46961031
C        4.21040698       0.88570992       9.13838379    -156.69654749
C        7.32901353       7.59398798       5.03698288    -157.21940656
C        0.09411611       9.19409921       1.86482472    -156.69312362
C        4.93924167       8.98142592       9.66260240    -155.63569202
C        0.15231383       1.51802776       7.62952233    -156.62541096
C        9.94669233       9.71486007       1.07046134    -157.30268005
C        6.24838010      10.55547356       0.87395357    -157.10230209
C        5.58868950      10.73119895       4.01819748    -155.75998827
C        6.15850038       4.08424265       1.13702300    -156.34259935
C        8.56120073      10.09510369       5.39549052    -156.97374767
C        0.29189922      10.09052598       7.79910424    -157.46896269
C        4.58864989       1.14896202       5.89705979    -157.36400269
C        5.98344914       6.81106888      10.00393003    -155.90485362
C        5.49946219       8.68504902       8.52169758    -156.82533441
C        5.19259244       9.83278235       3.06682730    -155.94328172
C        9.91923694       1.18941116       1.76422381    -156.13709209
C        6.31841582       5.35397579       2.20874023    -156.45070622
C        8.19055835       5.66698902      10.02037065    -156.24250942
C        8.82240211       7.22348695       7.77850997    -156.43166304
C        4.60220904       3.50413464       5.48620749    -155.51157833
C        2.15201358       1.00737809       3.86931856    -155.20424705
C        4.87599097       5.85791546       2.43400494    -155.67131886
C        6.57868208       2.76489408       7.60126230    -155.65755646
C       10.80994428      -0.05419379       1.65172737    -155.97655389
C        4.12460480       3.32433171       3.70369458    -155.64786244
C        3.88580267      10.35468492       6.91506230    -154.20218275
C        0.98147325       1.98405181       2.28374510    -154.43913860
C        7.62758686       8.61448051       6.79231222    -156.22089591
C        9.47811303       4.28351988       0.72737113    -155.25540700
C        1.33927955       0.69339386       1.55332289    -156.99010400
C        7.82994127       0.62981369       6.04593870    -156.47834817
C        0.02932138       0.48046831       4.41424017    -156.71782928
C        3.98305457       5.61411157       8.69296487    -155.66764001
C        6.58072628       6.45683449       6.93568918    -154.01867285
C        8.81176790       3.89382726       8.26536750    -156.01356556
C        9.16762242       0.36620059       3.31208824    -154.51674840
C        5.67489400       2.45723057       3.25956960    -155.96849244
C        6.77799193       8.11200874       8.67732889    -155.65439381
C        1.97547268       4.74251970      10.27082908    -155.79276102
C        4.42621181       1.57068775      10.46547423    -154.74063769
C        3.23437588       9.73862938       1.99228299    -154.87470184
C        8.09858006       2.70452484       5.69403123    -154.59219746
C        4.22918538       8.84569298       0.04982159    -157.06654927
C        4.77229113       6.27048577      10.58609312    -156.16731686
C        3.70185697       3.26964927       0.77596881    -156.17129724
C        6.50660215       2.80777887       5.96658446    -157.12887177
C        1.20029545       8.62403824       1.19343432    -155.83085947
C        5.02193406       4.72401313       8.14305236    -157.06744699
C        9.08221168       4.63955925      10.26285886    -157.11320069
C        8.27074985       8.11957664       2.84643389    -154.46174372
C        9.71207648       9.64778192       8.05960971    -154.53008510
C       10.30692885       4.51004591       8.87599721    -155.51238749
C        0.67385105       1.65670740       4.14540566    -155.89858664
C        2.61132873       7.96530451       3.80991705    -155.61956978
C        2.68892148       6.08041833      10.85046953    -156.79259454
C        2.44921686       2.60085762       9.26016613    -155.42278078
C        8.53428901       5.11389060       2.92659276    -156.39035667
C        7.39670059       6.02151699       3.11746484    -155.98810497
C        8.44607292       0.27929475      10.19345380    -155.21414506
C        2.79429582       6.96297060       6.41090515    -156.23957977
C        0.12090812       4.11006703       1.97964807    -154.72164767
C       10.38046581       6.02387652       3.02141989    -156.49808534
C        0.87820508       0.11274870       6.73105136    -157.67538258
C        9.87268781       1.85512563       0.35550114    -156.51939033
C        2.60778399       5.17095432       2.28258165    -156.66772330
C       10.65528071       4.84886178       5.54832735    -156.44924463
C        8.40896193       9.68090237       1.17437321    -156.52920987
C        5.04810639       0.30201042       1.23270913    -156.60931573
C        5.52239424       3.37968831       4.28248690    -155.96917775
C        4.24084169       5.17343347      10.25463855    -155.91793062
C        7.21905060       9.08428851       0.92196844    -155.39333717
C        2.58810309       5.93704137       7.15643055    -155.75871447
C        0.78531234       8.82252171       7.28341039    -157.01651599
C        3.86515404       2.21822185       6.18742368    -156.15932835
C        8.17263895       0.63515906       4.78686152    -153.92424533
C        0.77082242       5.51905610       4.46468199    -156.48021380
C        3.81223309       8.86046996       3.78509303    -155.49649096
C        5.19902950       4.81050034       5.28203722    -153.40734097
C        3.12896892      10.02530718       0.55119666    -157.19032690
C        2.12602610       5.39876342       4.02048090    -155.10225877
C        2.24429632       3.73261789       0.26113287    -157.06079653
C        6.92334785       0.33915730      10.68404091    -155.47986237
C        1.33700701       9.55270471       3.70871810    -154.84615073
C        9.94033138       9.24039825       4.43078953    -154.38211358
C        8.55746027       3.69180993       7.00842151    -157.06262318
C        8.61018550       3.26282076       9.57433195    -156.70020174
C        1.96507768       4.34748823       8.02830513    -156.50275391
C        1.42670187       5.89994124      10.03481055    -154.79578707
C        1.33335354       5.69945707       8.15169674    -156.39615843
C        9.91547473       6.96929894       9.81184014    -155.45002032
C        3.18441250       1.17843987       3.09757734    -155.30669101
C        1.54774482       1.00608741      10.78669690    -156.46426638
C        8.13523437       5.01762818       6.05917166    -157.44269312
C        5.03849428      10.08533935       6.94713890    -154.92290285
C        3.78826807       9.79462751       4.75003323    -157.83145528
C       10.38207508       4.11264403       4.26200137    -155.94510587
C        2.64857020       2.96861854       5.89337370    -155.53090639
C        4.83291047       4.43160503       3.35329851    -154.43715245
C        5.01296348       8.30391379       7.10632582    -155.74166683
C        7.28602001       6.46968688       5.97052064    -156.18655577
C        0.16401146      10.53080176       5.58674316    -156.95015411
C        8.99284302       1.82877932       2.47854248    -156.94680496
C        7.21148269       9.89036800       8.32359468    -154.59851045
C        6.30524810       3.18777239       2.22720330    -155.93468917
C        7.29575172       1.50014098       8.30263072    -156.45386464
C        3.95153252       6.87152511       4.45789697    -155.57620569
C        5.36175028       1.49621567       2.22926925    -155.78268169
C        4.78225119       3.16394872       8.24785042    -155.67527676
C        1.51451564       8.75356246       9.58226955    -157.75843661
C        5.09758046       7.00667089       4.06642111    -155.48460001
C        5.15363296       1.88166765       0.91439945    -154.85034680
C       10.06874651       5.79594782       1.65853413    -155.71466828
C        9.86305396       1.16426093      10.19314934    -154.47702157
C        7.52153836       4.72560065       4.84183755    -155.05135415
C        0.27536945       7.96133571      10.05442621    -154.50951524
C        0.15313912       6.85941212       4.66395922    -155.33082734
C        1.99575161       0.65007414       6.63089625    -153.79296399
C        2.26981625       7.90952385       8.41932430    -154.54622229
C        1.31660846       6.96165492       1.14578698    -155.05994423
C        9.64874966       2.81125836       4.59215113    -155.41972578
C        9.71642585       4.81212048       3.38073216    -156.97125201
200
Lattice="10.87342332846187 0.0 0.0 0.0 10.87342332846187 0.0 0.0 0.0 10.87342332846187" Properties=species:S:1:pos:R:3:gap17_energy:R:1 anneal_T=2300 density=3.1 run_id=100 time=2 pbc="T T T"
C        1.11828810       8.70107645       1.04133579    -156.55396985
C        1.92529183       7.15509312       8.81884650    -156.00938320
C        9.85389854       2.12604784       3.61998009    -155.90669751
C        8.31362376       1.59051000       5.66932681    -155.14303940
C        4.64294089       7.48425339       2.73136045    -156.13629374
C        7.49336532       5.01808487      10.72343533    -154.91380323
C        6.96362301       5.34580985       7.51392696    -155.09050522
C        4.25599925       4.54829861       4.28048619    -154.94538159
C        3.49989401       7.31221409       7.10000836    -155.27211014
C        8.27559939       2.12079598       4.11747183    -155.09970995
C        8.39418495       0.79191903      -0.12932632    -156.54039705
C        9.47933085       9.75480903       5.51817535    -156.47957483
C        6.83629522       3.32860497       4.86376924    -156.84635146
C        6.90488478       3.79805415       8.24064134    -156.88153323