200
Lattice="13.033549111243852 0.0 0.0 0.0 13.033549111243852 0.0 0.0 0.0 13.033549111243852" Properties=species:S:1:pos:R:3:gap17_energy:R:1 anneal_T=2600 density=1.8 run_id=165 time=0 pbc="T T T"
C        8.83811482       3.18949194       8.91064652    -138.65634418
C       11.01561684       5.43058464       3.98094117    -152.91936654
C        8.07191157      12.02737215       9.59643277    -155.35407268
C        2.48970765       1.43546296       9.83846578    -154.26786159
C        6.51575794       4.60626479      12.53134040    -150.64422021
C        2.71667388       6.95596606       7.24399446    -154.31838954
C        8.60252039       7.21114992       8.97340306    -148.82848110
C        8.70115829       1.92908257       9.35924825    -155.48427454
C       11.87288550       6.77109820       1.19429539    -155.34594587
C        1.40398694       8.52979318       8.51158531    -154.08778423
C       11.94115523       8.57511083       1.64096293    -154.13367479
C        6.59655291       3.29777466       3.38434350    -155.01198793
C        9.20549147       6.32730585       1.29657877    -154.51975719
C       11.34626494       8.31106416       3.73553248    -150.97354436
C        4.79545979      10.21904542       5.49875010    -154.92535145
C       10.39497226      10.56039407       4.45622258    -152.84209503
C       10.72685856       8.89960710       7.14264558    -154.10167565
C       11.39965036       7.42921423       6.13348394    -153.90479200
C        2.66521742      10.39549360       3.90335246    -151.99048773
C        4.13472402       9.24119036       4.15029911    -154.26896468
C        5.37628687      10.03013715       1.71319486    -154.41190649
C       10.87610573       8.01161837       2.61081539    -152.83094860
C        3.23436645       5.11042854       8.07685128    -154.31450459
C        9.41706507       2.83135607       8.91563837    -138.32346198
C        8.72331532       0.30855494      10.34059629    -146.04729120
C        1.50065678      12.91605167       6.79247322    -154.58451164
C        0.27792219       6.53459142       2.34867162    -154.18607734
C        9.93273744      11.83399339      11.82193735    -155.22747839
C        9.90384206       6.29753723      12.58823184    -152.25538739
C        7.23040047       4.19802797       0.07178488    -153.74219891
C        1.83478484       4.36313697      12.14711137    -151.56959568
C       11.41036394       5.04470035       6.68137525    -153.80078708
C       12.14032089       1.43651868       2.32007601    -153.73241664
C        4.72956217      12.35229853       2.29889649    -153.87934713
C       11.02604368       2.33297922       0.95441813    -152.92254336
C       10.48781023      10.77540853       0.88383494    -154.47818509
C        0.50480109       2.17802336       3.39104274    -155.50250599
C        1.37840209      12.55594774       8.71193703    -155.96331705
C        9.26959046       5.33497052       7.64214332    -153.54277856
C       11.51907677       8.65740466      11.68212647    -151.83969249
C       10.82678678      11.29526467      10.04314464    -154.56654012
C        0.01453032       0.50551793      12.85019314    -152.87092051
C        6.06186459       4.93660009       8.58983874    -139.47747000
C        7.28594946       2.89207938      10.79867341    -154.63375437
C        0.12191504       2.99454914       9.73288100    -151.94667261
C       10.61441813       7.04405982      12.12376828    -157.78597338
C       12.85975977       5.27682786       9.73771645    -153.07982081
C        8.18555108       1.87627063       8.23754191    -151.53770275
C        8.97123949       9.97832880       0.04777838    -154.64267087
C        1.03669371       4.40625195       5.62053558    -156.24445580
C        0.61502321       6.34672584       6.09202422    -152.53817527
C        3.31918878       8.13388609       5.23738834    -155.37368220
C       10.71227401       9.99497264       2.08544606    -155.71068179
C        7.34817162       8.91562534       7.10263259    -154.67785110
C        8.11277174       2.55108263      12.75473543    -153.05322837
C        9.07976985       3.30416110       1.72255295    -154.77270024
C        9.47442572       8.48285937      11.77419546    -153.79166440
C        3.13222252       6.90334962       9.07333128    -154.71648725
C       12.73508084      11.53527747       4.96185911    -156.08420202
C        0.47293145      12.91302788       2.85862226    -154.28129041
C        8.63400944       2.71551389       0.61908055    -154.24730738
C        4.88458320       2.80431146       7.77913895    -154.94394843
C        5.95025831       2.60736150      10.40176274    -153.79025779
C        3.51868029      12.61932989       7.85040640    -155.47647065
C       10.10152190       2.95275055       5.71694475    -152.28839957
C        9.77092593       7.90748031       8.20703037    -153.29413385
C       10.05370181       6.04034620       9.51641982    -154.71119764
C        9.93696031      12.66576842       8.04825568    -153.51272581
C        6.36249643       3.52560110       9.28392737    -149.57423139
C        8.36553136       3.30399167       5.40651167    -135.36954954
C        8.82302197       9.53286816       5.98620484    -152.99103552
C        5.41592190       6.02759939       5.33551793    -155.74788340
C        8.49195679       7.02123807       8.17237417    -148.24504609
C        6.93086344       4.78739202       1.75116159    -153.95649945
C       11.36590650       5.01438432      10.38603125    -154.19760276
C       12.37156212      12.84729969      10.65147251    -152.84416370
C        5.15290488       7.98023358       2.34974037    -153.14542999
C        2.25481703       6.68862190       9.94697008    -155.27201490
C        9.04392759       3.78289639       5.05773390    -140.04010883
C        9.72293640       0.86860003       6.43044033    -149.35914438
C        6.61850141       6.79236895       4.78073188    -154.59698154
C        5.54955488       0.63100625       8.63574290    -157.43700491
C        7.66879693      11.03112676       6.91416747    -154.29963527
C        1.11470341       7.24817823      11.76949035    -154.94267800
C        1.09232872      12.31156869      12.23519209    -153.19387321
C        9.10216149       0.95990395      10.00543858    -147.36705593
C        4.27698521       3.34674171       9.65177322    -154.66740417
C        0.11858418      10.58696947       6.47371171    -155.59122679
C        2.34150316       3.74784918       5.30560594    -155.53703069
C        3.69220896       1.85928791       9.14970788    -155.90643915
C       12.45695793       9.78823448       1.58822919    -152.45767033
C        0.36634309      11.30277199       4.01008419    -152.24240143
C        5.07316562      11.57280106       0.90376976    -154.81589989
C        4.69516663       1.94666483       6.10788605    -155.00527698
C        5.53168588       0.35487748      12.82953497    -152.05736857
C        1.36658066      10.50458441       7.77130579    -155.52583608
C        3.11169468       4.44709909       6.13107274    -155.58935551
C        0.54179682      10.69796318       8.65717006    -153.33107557
C        7.66665943       6.95517101       2.81572885    -153.18215167
C       10.73411824       1.41125966       9.77851146    -153.19186522
C        8.52511414       0.63309683      12.22421785    -154.14601391
C        0.03171923       2.46537402       7.37633712    -153.71831547
C        1.96487270       8.09762676      10.81226740    -155.99612771
C        3.88715175       7.24442457      10.85751989    -152.48627730
C        6.24837468       4.56948412       9.21398934    -141.48602659
C       10.28121544       1.74639131       6.07590172    -151.86805470
C        6.17601241       1.87348145       2.82386178    -154.54450496
C        6.23351643       1.39621895       8.00895953    -153.12048077
C        5.25270276      10.09019575      11.94187207    -154.51709891
C        4.78104469       8.51451786       4.71423471    -154.05333544
C       11.46041277       1.99943767       5.61837202    -149.55016841
C        5.67866521       8.73591876       0.64545654    -154.54876819
C        8.89955497      12.88686955       3.66953058    -154.97871100
C        7.71432312      11.85433876       6.21463082    -151.96904436
C        7.64076176      10.33941024       2.52101424    -155.34208843
C        6.24322643       9.71300484       5.75852177    -154.29269530
C        0.63671755       2.43456271       2.37815351    -152.23060494
C        3.74674133      12.48346817       5.47214863    -153.16792928
C       10.20640287       3.65699231       7.71947137    -153.16010237
C        9.35640693      12.39734248       9.96250607    -154.08482147
C        7.81284371       3.10294917       6.19603195    -142.12030291
C        1.34813819       1.30477557       3.75155071    -153.88895361
C       10.11777474       1.32618969       3.06184136    -151.42749530
C        1.32197985       2.43615280      11.92239995    -154.39039434
C        2.36100135       6.14690850      12.21248765    -154.11813721
C        5.73744652       3.06296224       5.36879258    -153.64144611
C       10.70661745       8.01138377      11.15110058    -155.95752241
C        6.30999730      12.54483012       9.34251317    -154.68308829
C        1.38931117       5.66603570       4.27702431    -155.53962375
C        8.79982225       2.73854417       5.93663825    -141.40406092
C        6.38844623       6.95747795      11.22592619    -153.96151067
C        0.09611878      10.02883380       5.27076726    -153.81703703
C        8.67144179       5.58859036      10.08251899    -156.08759335
C       12.85137920      10.23269154       4.27647690    -151.21289013
C        6.37464370       0.23215358       3.29046284    -155.06520481
C        3.60983693       7.59412773       6.18667386    -155.56796386
C        8.37565843       1.90022629      11.19942898    -156.12730481
C       12.98447780       4.19096378       6.56522026    -153.54569938
C        8.87550807      10.93251493      12.56062678    -154.52884738
C        0.87365965       4.63828822       3.36750415    -154.16546987
C        8.26999545       6.70246353      11.05179797    -154.36695257
C        9.30912122       2.02404501       6.51850802    -149.23947972
C        0.59054490      12.21848308       5.33686039    -154.21472269
C        7.65929547       5.51957771       0.93444552    -156.92488808
C        1.96764884       7.76123086       2.23849903    -153.09928738
C        7.39936740       8.69260828      10.48430421    -155.12898956
C       12.99764168       8.52916757       9.43569001    -153.46463708
C        4.61504940       5.81321054       7.32645773    -154.98657893
C        7.79657784       3.18134597       2.44938185    -155.18519303
C        7.71734690      11.32204861       8.91438715    -151.11690745
C        3.32166516       8.69783473       1.09487026    -153.64285368
C        9.74781745      12.84049618       4.88171582    -154.99731688
C        1.58603956       0.92523731       8.23980975    -154.78204954
C        1.58167332       9.76297547      11.08564610    -152.21032477
C        7.28151805       2.96801284       4.48275888    -128.82109923
C        6.90728575       7.32640559       7.82794960    -154.08086361
C        3.73230016       4.52011303       4.81948062    -153.53575817
C       12.84078292      12.11358908       6.69395262    -156.03138677
C        3.86111072       6.83534056       0.48400085    -152.05720274
C        0.57220148       8.54626759       0.62432395    -152.95850253
C        7.98432612       6.21116390       5.81362761    -154.68611568
C       10.26878144       0.57187825      12.19184251    -154.87068579
C        7.31040039       3.34167166       4.91222736    -127.77314329
C       11.93248792       7.93365168       2.41021604    -153.03816467
C        7.57554188       6.36932601       9.26160090    -154.47051911
C        6.25353596       1.34223399       4.62552838    -154.58831235
C        2.40798730      11.78802406       8.59445262    -155.29076366
C        6.00393047      10.66782961      10.47017584    -155.65211962
C       10.75018861       6.36434720       5.15719291    -156.36390753
C        8.13380789       9.17301186       1.46501002    -154.11671285
C       11.16491614       0.62446601      10.25315421    -155.12358715
C        4.62584118       0.00384206       7.89336498    -155.82572978
C        5.76326598       4.01456773      10.00803226    -152.79277784
C       12.71666443       0.43395202       6.89732812    -153.27657964
C        8.24497103       0.82379720       1.46352420    -153.07883052
C        8.60026558       3.79215021       7.64856886    -154.55778125
C        3.33605420       0.64660349       4.66221782    -157.12470698
C        4.88632970       4.04853316       2.69012454    -153.46451267
C        9.64025157       6.44757944       2.20639739    -152.45318841
C        6.62787253      12.09465133      11.33153703    -153.86775755
C        0.33341904       2.41776246      12.93792196    -154.73327363
C        2.75133008      11.51021396       0.81509991    -152.35451031
C        9.85471862       2.29993918      11.47987186    -153.31509185
C        8.76564829       3.99540841       6.33060334    -149.19500454
C        7.12798284      11.67489285       2.86319704    -154.66737675
C       10.99150477       4.65753877       1.04282860    -153.71961370
C       12.80413258       5.02116176       5.85008245    -155.66210166
C        6.71079197       9.43180602       9.60586906    -155.22639024
C        4.24299371       1.05298043       3.77740927    -154.41458831
C        5.22853856       5.16226296       6.19802608    -156.03189743
C        8.95485632       6.58628247       4.75278795    -154.77303168
C       11.82692920       6.54660835      12.98769709    -156.74490165
C        4.55886177      12.38222356       3.29558503    -153.21021245
C        6.47063579       9.15791901      12.13804002    -155.48999683
C       11.04283089       3.08441546       6.09104671    -149.42883385
C        3.16725670       1.10765226       6.25216744    -154.84815187
C        2.60773947       1.82203803       2.25396985    -152.50633249
C       12.42338351       5.22792598       0.23868469    -154.21065709
C        5.25459263       3.54947856       0.21745695    -151.91833706
C        6.96588459       7.01405659       0.26743279    -153.36711455
200
Lattice="13.033549111243852 0.0 0.0 0.0 13.033549111243852 0.0 0.0 0.0 13.033549111243852" Properties=species:S:1:pos:R:3:gap17_energy:R:1 anneal_T=2600 density=1.8 run_id=165 time=1 pbc="T T T"
C        7.59285044      11.14962779       6.42245076    -157.18957426
C        8.33217851      12.05097591       9.31148029    -154.12466406
C        0.23350646      11.60386001       3.58361343    -158.00469657
C       12.88581383       6.60425574       6.42865473    -153.75409531
C        7.08141397       6.03949902       3.38898344    -155.89931134
C        0.74060406      12.38661587       7.01648083    -154.24810076
C       10.59966415       7.52261264       4.54985559    -155.99940827
C        6.15170485      12.45523750      11.24220509    -155.73440383
C       10.94501410       2.00137967       3.56579657    -154.74782943
C        8.20382412      12.95521748      10.24568599    -157.55821889
C       11.73577256      12.78576831      10.34087000    -154.45796801
C        4.19024694       0.73085887       2.28025852    -155.41676781
C        3.25966457       8.64158193       3.47413162    -156.35160390
C        2.76369892       8.96100815       0.95516104    -154.42758742
C        8.69671385       2.47533165       5.06161790    -155.64831400
C       11.17788452      12.30309688       4.08202938    -155.27233708
C        0.66658653      12.74153244       5.68613344    -156.87849378
C       10.90240743      12.65951232       2.71417143    -155.98105060
C       12.11207719       1.53416603       7.16024088    -156.07131318
C        1.02264224      10.61695967       4.26300021    -154.97071164
C        4.55939615      -0.14097478      11.32586744    -156.36674664
C        6.93406970       9.09362452       3.53400774    -157.41638204
C        6.21915346      10.10749127      11.23130904    -154.71457625
C       10.86729505       0.86967790       9.76296243    -155.08566316
C        3.38625943       3.67376649      10.73500452    -154.18143887
C       -0.29963478       7.55339788       0.59227966    -155.41892891
C       11.33987850       5.29087803       3.66753645    -156.82912432
C        6.86474425       4.14296122       0.57070001    -155.66827824
C       12.39639103      11.69149759       1.09452096    -155.86489155
C       11.25826242       0.52867985       7.44533673    -156.81459876
C        2.72719195       5.66096565       9.15715004    -153.82084118
C        1.55808259       5.02116176      11.76913844    -156.22019164
C        9.72246719       3.09900001      10.75841278    -154.29708174
C        9.43641989       0.65914698      13.27284507    -154.98300846
C        5.94650465       7.18302352       4.43267095    -153.81582180
C        9.47176688       4.52515702       9.62943372    -157.38656372
C       10.28315744       0.51859058       1.66632622    -156.48820404
C        4.80092085       6.97638963       1.87973755    -154.35148913
C       10.36644182       6.27794780       3.78343077    -157.14185171
C       10.17861535       8.58256602       6.11113141    -155.60785897
C        9.70635773       3.83041671       0.26860581    -156.67580881
C       12.62631587       9.00116452      11.77285301    -155.08922439
C        5.76370912       4.57925928       1.30697824    -155.76376649
C        1.26605029       2.35070485       1.26928912    -154.42881728
C        2.35615287      11.21373982       1.82742089    -153.10546014
C        0.68035648       9.85860261       6.44458173    -156.80581712
C        6.43242143       4.22071938      11.43147829    -153.75322529
C        5.38455014       5.46994596       2.30957097    -157.28629428
C       12.58535142       8.13043220       2.83731241    -154.93915271
C        0.47516280      12.85598004      12.26056841    -155.51574540
C        9.06394713       5.89769401      10.22053124    -155.84090836
C        9.15135011       9.60483941      12.21813118    -154.14745435
C        8.79629016       4.39695903       2.07352036    -154.83026005
C       10.05624335       1.79556689       9.59944352    -157.60076378
C        3.35916268       5.32399628       0.54062771    -154.87274769
C       12.22110283       4.06751001       4.38620635    -154.55633468
C       12.14904033       7.56868624       9.65159075    -156.79249413
C        4.96076429       6.17271493      11.81585068    -156.53118411
C        3.37137512       7.24478951       4.25768252    -156.23066448
C        4.18270051       9.80066849       6.40336964    -155.27594357
C       12.42522124       7.33605042      10.93732431    -155.65850707
C        6.79196491       0.07343115      12.78764514    -155.08648222
C        3.27894118       6.85560773       6.68739675    -156.50018211
C       13.18695398       3.92325469       2.04922583    -156.80542395
C        9.34595403       9.97084754       5.33265055    -156.23439308
C        2.54261083       8.41646647       6.94607360    -156.23715956
C        2.97786620       8.01800481       1.71673999    -157.08763345
C        8.72734269       8.12828167      10.27742268    -157.94809790
C        4.65503633       3.26422631       3.14130691    -155.77474337
C        7.85537218       1.10362229      12.73970775    -155.52815846
C        9.21735200       6.22036558       4.69425428    -156.23301949
C       13.00963255       9.03541669       9.14014125    -156.09360490
C       10.22203010       4.55707618       8.48364138    -156.83030037
C       11.01808018       3.89823027       4.72622558    -156.66011978
C        3.11138188       9.49424975       7.18490035    -156.15416398
C        1.83398980       9.70591459      12.82915699    -157.01819824
C        7.26980089      11.88487636      10.13315433    -155.47470655
C        3.56043978       9.90647484       3.75331024    -156.60017979
C        8.26702380       4.01812589       0.74813484    -157.78459332
C        9.59252271      12.17684089       6.64189663    -155.63771398
C        3.35101671       3.28000994       3.04080521    -155.85881686
C        5.51781818      11.53873136       1.53221100    -154.47463331
C        1.94811155       5.56256236      12.76216455    -155.29713064
C        0.90046445       8.54419525       6.23419418    -155.79938788
C       11.21746741       8.20452793       3.53353853    -155.28561339
C        2.79392372      11.13357046       3.07384526    -156.89134800
C        4.63929181      11.14218563       3.73536304    -156.02758618
C        8.80974078      10.53817187       1.39782208    -154.35548916
C        5.72008583       5.46100494       3.72888537    -156.21504221
C        1.22644263      10.87233903       5.79555008    -155.72387695
C        5.50255590      11.68189187      12.10643366    -155.58436956
C        0.10616973       2.65430834       2.99789877    -155.56202160
C       11.17188909       7.33156688       8.46126278    -154.92421261
C        7.64317297      -0.05691230       4.49963733    -156.89504207
C        4.25100934      11.25479550       2.58433122    -156.41890173
C        4.22791390       1.19509174      11.10437531    -156.62931242
C       10.67591041       2.66863221       8.42896565    -155.83857319
C        5.87474193      11.10982333       4.50161843    -156.48649277
C        6.27332089       1.74034375       6.17554321    -154.15416971
C        7.25264874      10.66673479       3.54665028    -155.92474024
C        8.92055202      11.92578867       2.38696418    -155.83980195
C       11.06129943      11.39695242      12.67705548    -155.00449202
C       11.10528765       6.71790829      11.20831786    -156.07795482
C        8.98064971      11.58071243       0.85877012    -154.75603735
C        1.17101747       0.56480233       4.77271625    -156.29052557
C        3.89172653       0.91356838       0.97678239    -157.70453606
C        9.59003330       3.41850443       2.31541000    -155.57581216
C        5.11560286       2.95057395       8.72369329    -155.20717230
C        2.99688215      12.61428590       7.36305593    -154.75519274
C       10.45289335       9.56314509       0.36478297    -155.13767013
C       10.51799593       4.11478269      10.99200005    -157.67703710
C        4.88755485       2.50078617       4.30150131    -155.35981555
C        5.50455003      12.19220745       7.26546072    -154.76266703
C        7.45662378       1.79543656      10.33513524    -155.22563170
C        6.27201754      10.95288636       6.00166263    -156.28197595
C        4.96166361       8.80109954      11.25344001    -155.20810742
C        8.02294452       5.81683387       4.64857169    -155.53636324
C       10.44795364      11.15622276      11.73432584    -154.26931870
C        2.77218376       1.88672354       2.38804597    -155.60291923
C        2.20062353       6.36071084       6.25641638    -156.13708954
C        2.85411265       1.55700081       0.56044522    -153.89858574
C        2.03998504       2.21846646       3.33542859    -156.45522518
C        1.09296736       4.91681517       4.47224081    -152.90845610
C        7.81730119       9.79902626       8.51286260    -154.06646471
C        1.46653495      11.99980620      12.75229815    -155.50821902
C        1.02131152       7.63919774       8.86671043    -155.06553978
C        2.11484975       1.84428630       4.49055294    -154.36438475
C        5.94585297       1.01498242       2.46543918    -155.00915453
C        8.99932679      11.29254065       6.19544544    -156.94460328
C       12.79384911      10.27970355       0.67533465    -154.47342988
C        3.91622960       0.40118698       4.62097967    -155.39277912
C        8.19013889       7.05753651      11.08719709    -155.62489305
C       11.19606632       8.80020023      12.62248401    -155.47225055
C       10.06350304       8.21793945      11.01105509    -154.86637699
C        4.52795923       5.19871780      10.11906506    -155.31734517
C       10.78464931      12.47787678       7.04265220    -156.08238127
C       10.69057316       4.11019488      12.50202794    -155.07822575
C        4.35475640      11.32545037       6.65423940    -155.63630315
C        2.05608147       5.54881196      10.36713260    -155.55998178
C       11.16336515      11.07987223       5.09480131    -155.55846084
C        4.00230316      12.76421082      12.96607443    -155.93044152
C        0.94168435       3.82324826      10.55378606    -154.74965472
C        1.11871253       4.61025306       1.59067950    -154.09636139
C       10.81553882       8.80175122       7.61039359    -155.32300062
C        1.40174517       3.75990521       9.19512980    -155.56387090
C        4.58594549      11.76353402       0.30600558    -156.64497909
C        0.62480097       9.46859972       7.90886187    -156.74336343
C        1.86709501       6.18372828       4.97310707    -156.91649115
C        6.36678447       3.93853000       4.48904105    -156.05648160
C       12.76323330      12.33557649       2.45906578    -156.14518901
C        0.48092884       7.48287335       4.16666925    -156.50585106
C        8.45333838      11.71123039       3.64290304    -157.59165529
C       12.80367641       4.86035383       8.79235403    -155.39238417
C        3.38305318       4.47595537       9.68413553    -157.22255052
C        0.83887571       6.72833512       7.60823003    -155.86031127
C       12.03455364       6.22187747       3.31246347    -155.41787800
C       11.35583157       5.41530932      10.46212111    -155.26219379
C        0.45945737       4.33149151       7.82688085    -154.75721425
C        9.71291360       1.82224657       2.30795481    -155.86416489
C       12.42592505       2.13632903       0.83386301    -155.25515340
C        6.53963540       1.76298302       9.41535768    -156.90326749
C        6.52426885       2.57187115       8.32378491    -154.74661486
C        4.92209375       1.09672363       3.77635355    -157.48067170
C       10.76830524      13.10054155      11.76744408    -155.16206804
C        9.71937824       3.29080171       5.05790334    -156.18832631
C       12.60816014      10.75645775       4.71697176    -155.86525094
C        6.91458454      11.34842851       7.78463911    -154.92836867
C        8.40718659       8.58253996       9.10225273    -155.82349468
C        3.06447413       6.60910422       1.61909264    -156.28836911
C        8.63307103       1.35289543      10.23325198    -156.58090112
C       12.77416845       1.20066227      13.10223592    -157.08141663
C        4.57890737       2.45217103      11.15030553    -155.17946914
C        1.24196950      12.64075704       3.24179557    -154.51151186
C        1.55153975       6.33741989       3.75701177    -155.30682674
C        5.05756446       6.82564360      12.79697716    -154.13913311
C       12.29251364       9.98974619       8.26291823    -153.90384699
C        7.45242698       3.65506335       4.02670196    -154.50845953
C        5.69351043       5.36615981      10.74833784    -157.50386643
C       13.11253242       8.41452447       5.05347193    -155.38468851
C       12.65865210       5.69046058       2.10205080    -156.29781382
C        4.31858830       7.00532411       5.68428267    -154.99809167
C        6.86278922       7.66835379       3.79676409    -157.50514313
C       12.24603601       2.48716611       8.30280089    -155.42728916
C        5.64503866       9.32400553      10.15450328    -155.64732027
C        9.06672327      10.41733783       4.03364885    -155.64202898
C        4.31108097       2.07754773       9.63394333    -155.34433104
C        6.25280609       2.58447459       1.88054563    -154.45240453
C        3.32756936       6.61827984       3.09772272    -155.35671404
C        7.48780003       5.71233087      11.13248867    -154.94699838
C       12.02389220       0.43138441      12.19413641    -157.00130601
C        6.89822744       0.65970221       5.79492447    -156.00158383
C        0.73873244       8.65140923      13.00568338    -156.03864202
C       12.30410047       1.80225310       2.52700967    -156.08111006
C        0.46356685       6.34537035       0.94562439    -156.19532691
C        3.14318374      13.09949887       5.78251653    -155.79205915
C        6.14147351       9.06631923       2.56190048    -152.15237352
C        8.45760035       5.46767812       8.88635199    -152.56139281
C       11.19102234       5.33168607       8.26673706    -154.88392005
C        8.71090738       0.88164791       4.47144576    -155.00483109
C        1.64289190      10.87770885      12.36335098    -156.35538593
200
Lattice="13.033549111243852 0.0 0.0 0.0 13.033549111243852 0.0 0.0 0.0 13.033549111243852" Properties=species:S:1:pos:R:3:gap17_energy:R:1 anneal_T=2600 density=1.8 run_id=165 time=2 pbc="T T T"
C        7.11468862       6.08790562      12.63240254    -157.29644646
C       13.01669673       6.69435666       9.58639694    -156.25921433
C        1.49776333       4.13654872       2.73101078    -157.61421466
C        4.26653230       1.66859406       8.50901771    -154.14441228
C        5.45775959       5.90138250       5.69618230    -157.07342897
C        7.99112963       4.31446970       1.73294069    -155.47164437
C        9.68976602       2.95402784      10.12211491    -155.39221807
C        8.52314607      12.09184912       5.15119748    -157.54497932
C       12.02453084       2.31297273       7.01946551    -153.07160280
C        2.53978255       1.16424784       4.35108093    -156.97757576
C        4.47591627       8.44339379       7.07706076    -154.52295631
C        7.46519986       2.64865178      10.43923419    -155.27003109
C        5.57450109       7.41190568       1.04457119    -155.90328715
C        9.99722744       5.52698077       4.89330264    -154.02564530