200
Lattice="10.992921065237647 0.0 0.0 0.0 10.992921065237647 0.0 0.0 0.0 10.992921065237647" Properties=species:S:1:pos:R:3:gap17_energy:R:1 anneal_T=2900 density=3.0 run_id=255 time=0 pbc="T T T"
C        0.86974672       1.79046103       4.26010869    -146.42876232
C        2.90601166       2.95186314       1.96512755    -154.76901432
C        1.96571017       6.54763662       9.35716342    -154.52776050
C        4.51958560      10.98550084       1.25004903    -153.83030034
C        3.78852337       6.92844240      10.66958628    -155.33325993
C       10.79951161       3.28634475       0.40892787    -151.45749825
C        9.77479548      10.60999365       6.37764209    -153.88139146
C        8.83776988       3.89630896      10.19593429    -153.89041063
C        4.95453151       5.02766741       9.70284681    -154.08187684
C        1.84296322       5.55220564       2.99092098    -149.01685369
C        0.45612817       7.58896306       0.53135823    -151.03991908
C        6.66223783       2.74026040       2.97195820    -154.37839601
C        7.03500778       1.95129845       2.12097419    -131.33062859
C        9.78862458       2.00901129       4.10583403    -153.84055649
C        2.65632945       7.68530502      10.89830499    -154.84527845
C        5.40042637       0.10754023       8.06308774    -156.60793065
C        6.52014333       8.70025943       0.50897664    -152.81967939
C        2.48136611       7.01035066       5.45268672    -153.22456829
C        9.78505188       9.52603667      10.65879123    -154.97129185
C        1.57961680      10.90383443       9.47937172    -148.30158523
C        1.45307729       6.20836210      10.36653343    -153.86406602
C        8.70548107       2.38277061       3.59417951    -156.04468176
C        1.23268021       2.14721429       5.63061814    -154.23431267
C        6.40555312       5.85533543       8.06411008    -153.49530229
C        6.60083137       8.85447912       8.76087440    -156.22346052
C        4.23655086       4.16265644       2.17913774    -156.38014980
C       10.59086597       3.11178815       5.63500432    -155.42778704
C        5.88901774       2.92897587       9.32104068    -153.62989959
C        0.65741955       8.98755943       9.40172872    -153.46605109
C        2.79544486       8.62670580       1.08352056    -155.65522190
C        9.89480520       1.59317107       6.75225886    -154.20948466
C        6.10756801       1.27861963       8.47887300    -146.28855523
C        8.47897193       8.10746617       1.87355652    -150.36962077
C        8.80194395       8.29951250       0.53452639    -153.15636160
C        1.15010139       9.85820977       7.35973867    -154.85434861
C        0.80098380       5.41931221       2.49924060    -155.40961512
C        4.21431218       5.82877654       2.12265611    -155.51283227
C        3.81066311      10.81483574       6.82180008    -154.75280781
C        7.96741635       7.61918260       1.09622288    -152.17340478
C        0.45818495       0.45765399       1.16438119    -147.97574875
C       10.30616031       9.22428099       8.34220900    -154.61774862
C        8.16244176       7.78011896       2.77709768    -150.94794511
C        0.69330924       8.80259254       4.67597089    -139.51695377
C        6.54758166       1.76226418       6.74273899    -154.33162935
C        4.73534366       3.16135523       1.10424991    -153.73632596
C        8.52458156       1.18950002       2.65188831    -153.08893182
C        8.09801225       3.69437999       1.23059156    -154.73353888
C        7.44414232       1.61453032       2.37354754    -134.34089883
C        6.04847006       4.98519077       0.00411715    -154.58749070
C        5.22604567      10.11760973       7.11030929    -153.71920115
C        5.48000413       1.47229291       3.23814079    -152.95807000
C        0.27050501       4.35581306       3.47231199    -153.45316636
C        0.55513042       0.00905779       9.66126059    -152.55523685
C        1.16524963       5.76675448       5.37723131    -154.75574762
C        3.00178199       3.42571300       3.49262691    -152.40055053
C        8.56024260       0.81879563       5.19611194    -153.75424036
C        3.75965595       1.23238340       2.12751498    -154.43190463
C        6.72288577       8.12416441       7.58500561    -155.91650294
C        7.02820316       0.86107990       8.29696214    -151.03179805
C        4.10582304       6.96413642       6.28093737    -154.53181804
C        1.81477737       6.01393031       2.06953831    -152.29487635
C        4.44657061       8.68215409      10.38724409    -153.46117537
C        6.24240718       5.11281858       9.95942159    -153.33065558
C        0.50883923       1.44273295      10.89619435    -153.16934690
C        5.45867786       8.76254532       0.59591086    -154.89566290
C        7.89267548       0.67068031       6.13267584    -154.15739691
C        2.67313762       0.64553181       6.11720880    -155.74720381
C        1.73795883       3.85633870       1.19515038    -155.61194134
C        6.53965576       8.76828363       5.76452291    -154.90261259
C        1.79789224       3.86668303       7.19154698    -154.54209662
C       10.64225788      10.74825162       2.85969849    -154.06597442
C        1.78083123       1.19028051       0.05320706    -151.96242011
C        1.12121199       3.63958028       4.87897716    -151.19920031
C        1.71342263       3.83364931       8.95341541    -153.51242308
C        1.11928823       8.92528453       6.18873974    -155.00944216
C        4.01048143       3.52213191       3.23002801    -153.76601158
C        1.58919163      10.20710310      10.20184848    -152.00002965
C        3.94112710       3.15162650       4.79787139    -153.22055690
C        9.14799012       3.26852522       5.18569065    -154.40343678
C        9.36034037       3.57825077       2.48337782    -154.39634524
C        4.69944078       6.38762366       8.48781024    -155.27438122
C        5.48547860       5.60829152       4.92551020    -154.21474897
C       10.48438854       5.98007211       1.62381934    -152.67804339
C        8.52129468       5.15976935       4.36655314    -134.34663273
C        2.33333544       7.68375502       4.71198370    -153.20574060
C        0.02444738       3.75778716       7.18247782    -154.31696373
C        5.34221886       9.78803096       5.07601428    -155.68124468
C        2.44141784       4.73328798       0.10599814    -155.32380375
C        0.40517599       2.63735566       7.95872095    -153.02541871
C        6.00572959       5.11286255       7.39632311    -152.30684645
C        0.33501257       4.59961406       7.63673829    -151.38749724
C        4.31586478       8.59367207       2.96505464    -152.75232274
C        1.27356288       6.44712835       6.54088697    -156.47490716
C        4.67400316       4.41291029       0.62317550    -155.78021193
C        3.68476118       6.00836789       0.84724531    -155.52389604
C        3.49203329       7.17012177       7.94362767    -155.04095480
C        9.37840174       6.42584605       0.46986823    -153.01046138
C        1.20824295       8.37495691       4.46274120    -139.58258805
C        9.36174747      10.77607470       0.62390983    -154.64743312
C        1.75426134       4.69565921       9.79113096    -156.86262054
C        8.74529743       4.48753024       7.53306405    -154.10807269
C        9.71890747       0.96229942      10.74350268    -154.93942783
C        6.96897330       7.36651031       2.18199590    -153.48943123
C        2.40144758       3.06461753       0.08936102    -154.45464554
C        5.39031289       7.94114327       4.37917301    -153.38966810
C        6.30645194      10.37414053       5.13184733    -152.43072028
C        0.76357269       1.01406729       3.68287040    -149.55774343
C        5.08158769       2.90967231       7.27895169    -151.56478995
C        5.81921270       8.42686549       1.72009534    -153.01518698
C       10.91808126       4.46471993       5.75210091    -154.50599917
C        9.18647633       6.54690010       8.82267660    -153.22690623
C        7.41650611       6.53378554       4.44484472    -152.86475329
C        3.80727729       9.83465194       5.42945868    -154.88969236
C        3.64288915       7.91698083       3.94007178    -152.95783929
C        2.60484960       1.99725986       8.04624659    -151.86205126
C        1.45289041       9.59566583       8.77957336    -156.65266842
C        8.14776621       6.25806110       9.05688079    -155.02190161
C        1.51656140       5.55688862       8.38973140    -154.60118752
C        2.74160153      10.96359195       2.85585096    -154.83345231
C       10.77003959       9.24345264       4.90299670    -151.68229672
C       10.97330969       6.57494304       7.17992746    -155.62412696
C        9.28985376       4.08335351       1.29076681    -155.30488784
C       10.88545427       5.60854436      10.90882522    -156.13530567
C        0.85955519       1.25136818       4.98316807    -150.53829337
C        4.01702222       5.84921238       4.65879995    -155.06565035
C        5.36257775       6.19093832       3.06569483    -153.90034938
C        7.19945089      10.39020119       9.19546854    -154.03107854
C        5.88692909       6.52106673       0.79293918    -154.75084559
C        8.76565632       2.28815453      10.10500084    -132.58227405
C        8.15846233       5.93281354       2.33619360    -154.50925673
C       10.11695015       7.12045575       3.07590726    -153.39193594
C        7.33344360       4.17501248       0.63287126    -152.66180250
C       10.46700873       5.44461792       9.82298845    -151.61861276
C        1.41115028      10.29216632       4.74428090    -155.40612045
C        9.38961452       6.40424496       3.95907854    -155.70715333
C        4.07519676       2.10940964       9.46753235    -150.37749274
C        1.00334589      10.96662600       1.89267321    -150.29338536
C        3.72623747       6.90857819       3.98032785    -153.16889972
C        4.04836304       2.61438046       8.57456637    -151.78142936
C        2.29706979       9.65947974       1.39415523    -154.16744885
C        8.20997515       1.90099485       8.53035285    -147.62845116
C        4.48108839       1.17587979       7.44434019    -146.28978649
C        7.17620086       3.36862676       6.48223974    -153.69066669
C       10.01877237       0.26484145       9.17940788    -154.74212788
C        2.00229461       9.43784047      10.91291459    -153.08319383
C        8.37696862       6.52757454       5.25597939    -153.41585760
C        1.33687112       0.71306352       6.82645008    -153.86344365
C        2.76332355      10.72083528       5.14343387    -157.03797782
C        8.87313411       1.71580810       9.93662227    -131.97996056
C        1.07600470      10.88703725       0.75145520    -149.92639741
C        4.26214238       8.56770679       1.10110594    -154.30523744
C        0.05165200       4.35317476       0.22805694    -153.08949130
C       10.44765019       5.53209958       3.69262112    -153.97941536
C       10.02420288       6.56798452       6.21350679    -154.15786753
C        0.09548968       8.78805989       6.30892534    -150.96768081
C        2.66285924       7.97613374       6.51471283    -153.72857208
C        7.50271260       5.24471165       5.95226002    -153.54759167
C        5.03882523       7.62982374       3.05315191    -155.27002957
C        6.52764050       7.96892238      10.35062667    -154.46813529
C        6.07704067       1.98400239       7.90717514    -149.67105794
C        8.74038360       3.19290492       8.72921479    -156.02768979
C        2.59499994       1.81429368       3.12096724    -154.36226567
C       10.36633556       7.75022921       1.13260066    -150.92793107
C        3.70188815       4.59157824       6.09460735    -153.41442962
C       10.53508789       7.17045156       0.26180301    -151.47339170
C        3.63487531       0.36217937       9.74120112    -154.67106774
C        8.29656639       5.66522386      10.30483016    -154.59965495
C        3.99159560       1.79409968       7.78000903    -146.32213704
C        5.72023243       4.27444346       2.98783197    -154.73396569
C        5.10023169       5.06032738       8.54478655    -156.04118982
C       10.67375260       0.80779172       5.82480809    -156.48200452
C        1.59701859       2.20447642       1.74320246    -151.79615453
C        1.06556692       8.61030436       2.22644028    -154.03104561
C        6.40935667       7.04140566       9.34935844    -154.73595317
C        5.72555301       9.93671022      10.72911295    -153.92204481
C        7.61110280       2.24602966       5.84917940    -156.03224685
C        2.80750410      10.10373666       4.13027130    -154.66707574
C        8.34519908       1.30561824       9.17659370    -145.52493255
C        8.48418258       4.34651305       8.93204517    -156.27961024
C        8.48350102       1.93291829       1.55973061    -152.84596616
C        6.15104501       5.77287753       3.63926148    -154.11051402
C        8.65878314       9.44223763       9.99193865    -153.44526212
C       10.38688133       5.01163973       0.95294555    -154.24857343
C        6.23266745       3.36684591       4.52851185    -153.56346397
C        5.20971019      10.25010740       1.27838878    -153.62757149
C        1.68159813       7.96703160       8.20945849    -154.00909760
C       10.47279101       4.61548784       2.53472575    -155.81217666
C        9.54237215      10.34388801       4.11842093    -154.60292446
C        8.35401540       5.71680264       4.05591518    -138.75676013
C        7.91725565       8.91094976       4.42715711    -153.92791501
C        1.60872605       3.65426682       5.76409419    -152.56868873
C        1.86943417       1.50242451       1.07117991    -152.28286365
C        9.53843669       5.46084347       7.81049240    -155.56274177
C        5.01559719       1.06813487       0.66622928    -153.13083992
C        5.49730699      10.56637374       9.06466377    -151.81970669
C        1.08159460       6.57569056       1.36632115    -153.79654622
C        9.47083022      10.21084069       9.49632281    -156.11609683
C        3.41175199       0.92685715       7.70773058    -150.73300149
C        8.26170784       7.73880756       6.97375522    -153.70100816
C        7.15971148      10.84690209       2.25767116    -152.35441173
200
Lattice="10.992921065237647 0.0 0.0 0.0 10.992921065237647 0.0 0.0 0.0 10.992921065237647" Properties=species:S:1:pos:R:3:gap17_energy:R:1 anneal_T=2900 density=3.0 run_id=255 time=1 pbc="T T T"
C        3.77087973       9.13641457       3.14935096    -156.05820278
C        8.81343156       6.67051550       0.58956465    -156.73033745
C        3.50114642       0.25667042       5.44033068    -155.51019134
C       10.59703300       9.77782953       6.30837570    -155.30731078
C        2.77507498       0.98687850       7.68575573    -157.06042334
C       10.14678494       1.18303618       9.78919621    -155.92252900
C        2.72478237       2.18210582       4.66969393    -155.95858945
C        3.69497361       3.62087033       8.01896216    -156.96970323
C        6.95222009       5.52186517       0.04261703    -156.45991226
C        6.10853538       7.12832669       6.23692171    -156.29192276
C        5.74088813      10.49437011       8.08235833    -155.16484763
C        7.02334429       0.87678659      10.44247253    -154.72823487
C        2.01008860       3.04542389       0.82623564    -156.02596702
C        2.29841093       5.23808292      10.74708637    -156.88756144
C        9.33405630       3.01878804       7.65728406    -155.94500541
C        9.08141699       6.95360520       3.92116395    -156.12147679
C        8.45834921       9.26152500       4.88927753    -154.57828793
C        6.25980897       5.37286712       2.11057489    -156.49655013
C        9.23905547       0.51024742       7.79534416    -156.61733200
C        7.67162982       0.51264608       3.12154987    -156.51157491
C        8.02949338       4.78064548       9.24290300    -156.36065937
C        1.62831544       0.19082282       9.54816542    -154.40923451
C        5.98361183       5.98228169      10.05711568    -155.37611418
C        2.00205277       7.72228520       9.96575351    -156.09361349
C        4.08701415       1.13840492       7.07147130    -154.84096926
C        1.75091949       1.03035880       4.73403550    -155.59435274
C        4.01825343       0.72986400       9.70408901    -156.90618376
C        0.65964782       4.38096486       4.29723178    -155.71759276
C        1.26694515       3.47903966       3.45518502    -155.69075829
C        2.58879993      -0.21711459       0.95964463    -155.34771019
C        1.31418173       8.40836440       7.22441581    -155.16354153
C        6.02013031      11.22410220       5.28677056    -156.15987443
C        1.39555133       9.38419501       0.65014444    -156.11830897
C        7.37045677       9.37247656       9.65769889    -157.58659862
C        9.86600375       8.08223741       3.16260843    -156.34568465
C        6.58902497       8.35808278      10.97902601    -155.37460077
C        8.68456154       1.17201028       3.27008622    -155.76913148
C        5.96928805       4.05794887       2.92352339    -156.59210891
C        1.57361466       5.50097862       3.30227349    -155.93046715
C       10.70286185       0.92193672       1.71978754    -156.02104485
C        2.62311983       2.84234066       7.50802218    -156.77562065
C        7.17243029       8.17089532       8.40161475    -155.93702756
C        8.03695757       8.31667245       2.19436293    -154.99651478
C       10.23137547      10.79579600       4.37160988    -154.88795552
C        5.63049722       5.19802471       7.61522515    -155.14148432
C        6.26595401       3.67092110       6.87723738    -155.62039066
C        7.49904096       6.65786264       0.90632017    -155.63789722
C       10.93764866       0.40730861       7.64779717    -154.22348154
C        6.23477809       7.90704323       4.88853001    -154.52212966
C        0.38184351       1.21448693       0.06084725    -154.80109899
C        8.00986002       3.58625362       0.96301067    -155.40768884
C        7.18312640      10.54157371       2.08783053    -155.32087189
C        3.66688669       4.75190999       5.53849746    -153.67679040
C        3.29394085       5.48920520       1.32927501    -155.77384900
C        0.19497485       7.41935328       3.51734999    -157.15205891
C        2.70532490       7.37428230       1.11633113    -155.65792338
C        5.11477532       0.34268673      10.31528443    -154.25485435
C        4.84350301       5.65453874       2.81225304    -154.95867923
C        9.96136734      10.10810085       8.61389905    -155.12061498
C        5.79832615       4.52715972       0.76976721    -155.73917419
C        0.48802304       6.57486609      10.32246281    -156.96502524
C        1.76899185       0.02295938       5.78294705    -158.13712212
C        3.56056316      10.60929011       8.72965450    -156.03931190
C        5.02385287       5.25347301       4.18126746    -155.65990781
C       10.53129533       2.67523727       9.04610772    -156.27489763
C       10.89101669       0.74300274       3.38883175    -155.95725993
C        7.01766095       0.63831276       4.58756582    -156.47118598
C        6.63816333       9.27819027       2.75574942    -155.34972944
C       10.42740123       6.09198005       5.49828536    -155.93308433
C        4.06612760       1.87654659       0.32018092    -155.41161559
C        7.02151946       5.48961194       8.56868516    -156.25556641
C        4.67748791       3.23535958       2.86249069    -158.18499903
C        8.46999072       2.99989121       5.51754496    -156.92290472
C        8.23568760       4.29179028      10.57015531    -157.04148721
C       11.46814504       7.40985539       4.98373970    -155.42979495
C       10.78375876       4.32943005       0.51098945    -154.37268648
C        3.68310125       3.19747797       9.59616051    -155.91479430
C        2.43470116      10.19907826       9.62860062    -156.54182858
C        2.88616944       3.04537992       6.16830390    -154.97394424
C        1.07022133      10.03528374       5.26236628    -156.25381277
C        6.48177803       4.23305511       5.00290036    -153.94491107
C       10.89341314       1.84810790       5.46840660    -155.03121418
C        5.35364050       6.48712059       4.92521339    -156.25698769
C       10.61410501       7.22819737       6.96388358    -155.29979376
C        6.89748634       9.67817870       1.23762703    -156.10811069
C        7.90810954       8.90949869       0.50560401    -155.94932106
C        3.54938336       7.49464379      10.80467828    -157.29590661
C        4.18435647       2.12521746       2.38289153    -154.26181350
C        3.27129544       3.82896632       0.56775139    -156.36841958
C        5.95438165       3.22899468       1.91852856    -154.55467073
C        9.69815284       8.20664430       7.34889965    -155.24899706
C        7.11346426       9.15933481       5.27963616    -156.42352915
C        4.85182465      -0.00014583       3.98328495    -155.95574236
C        3.64809979       6.64677079       1.92730091    -155.83437454
C        5.32310217       8.14302826      11.36129385    -155.06585243
C        1.60668137       9.15964261      10.30243371    -156.63444673
C       -0.32283791       3.85451387       9.42007591    -154.88831910
C        8.59455150       3.06348526       3.20091876    -156.52166439
C        3.61409869       8.01243236       4.72207520    -154.20257939
C        9.14385678       6.58485865       5.34484617    -156.94154489
C        1.04467488       5.57287233       0.04789231    -155.97834971
C        4.14508975       9.38911984       8.82790923    -156.11966230
C        9.91284458       9.65331271       2.72478237    -154.92028966
C       10.13878209      10.69131928       1.46290496    -156.76735113
C       10.62343800       3.46973965       2.00858257    -155.26459476
C       10.19835273       5.11833703       4.35585703    -155.92698885
C        7.24035554       3.76826341       3.50079465    -156.38588042
C        0.30182604       8.36068810       1.18965392    -155.18439240
C        3.33110792      -0.17164017       2.07034080    -154.84092528
C        5.77843995       3.58541816      10.53188895    -155.56799362
C        9.24252924       6.56451076       9.00748959    -155.16719881
C        5.62896920       8.03538558       2.35981739    -154.49775871
C        6.06887293       7.27653325       9.70606774    -155.98856527
C        9.27872893      10.10794695       0.17316379    -154.52160951
C        8.58785682       9.81174269       9.27859701    -154.95908203
C        1.74598367       0.55515241       7.05925816    -155.67353282
C        2.37192059       8.76758008       8.04115687    -156.20636965
C       10.64055397       6.17736206       1.72157938    -154.41026976
C        1.66779102       4.27326721       7.79779558    -155.46657042
C        7.41392278       6.63822929       6.04489736    -154.70017752
C        9.52677320       1.57586821       2.18561257    -155.23270705
C        3.78509357      10.22192155       6.21302310    -155.64964478
C        8.38701615       1.66441619       0.89246030    -155.22049825
C        4.10460282       7.22119488       5.49529528    -155.72703370
C        3.01369832       4.52832497       8.59447455    -154.84444826
C        4.05528858       8.73749246      10.40628383    -155.33803743
C        2.79967714       3.74005558       3.84780819    -155.05478624
C        6.17816455       9.45557205       7.39337701    -156.65671236
C        9.42646279       5.23433433       1.72736166    -155.23461034
C        9.24357356       8.39260055       0.34680138    -155.48693712
C        7.94784895       5.17176262       3.70576866    -156.12497724
C        5.20684103       3.39420729       7.62115033    -156.03246766
C        2.17549908       3.94958065       9.69853759    -155.87387931
C        5.38063912       1.17197730       6.18957520    -156.41125692
C       10.12798704       6.40276092      10.08932494    -157.12911466
C        7.45387105       8.16033112       7.16938525    -154.38531220
C       10.57412375       5.15685622       8.41481725    -155.27203907
C        0.74571579       0.04885683       0.75465853    -156.27486185
C        4.46602808       2.57050771       4.20722174    -153.36831276
C        0.89551743       5.82741341       7.69652879    -155.26532195
C        8.48285243      10.65608697       7.08775181    -156.02956763
C        0.61120311       1.16147906       9.49314585    -156.53270599
C        2.20521294       7.35265923       8.69733532    -155.92519642
C        4.71102732       9.34932547       6.46767412    -155.13211959
C        1.00694827      10.04557311       3.61494514    -154.25894247
C        9.29821938       5.59771633      11.02128280    -155.97910594
C        6.55868451       2.14845649       6.85062351    -157.70429997
C        1.23632986       6.64292326       8.94537959    -156.32150857
C        0.97999253       3.09671686       1.68466515    -155.62065622
C        2.47796930       8.53325498       2.61961309    -154.19146312
C        4.46285113       9.14685784       1.91180089    -155.96107009
C        6.55817883       2.44160472       0.48005207    -154.88353051
C        5.71423030       1.69196445       8.07031009    -153.76997462
C        7.95612662       2.02295031       9.47346852    -155.23354381
C        1.81308446       4.77423661       5.99806752    -155.05061370
C        9.32053500       7.65689931       1.61042996    -156.04520881
C        2.36465427       8.70054525       5.32435536    -155.47772686
C        1.50006103      11.21574758       3.32806288    -157.16992128
C        3.29206106      11.02491047       3.66186293    -155.25090032
C        3.65214519       6.07551265       5.26610387    -155.58298672
C        1.09927012       2.61949217       9.28902929    -154.99599785
C        3.66512783       4.05403539       2.11495007    -155.13862044
C        2.72934443       1.53987739       0.43849333    -156.88607834
C        1.86886254       0.40150985       1.82600114    -156.64251987
C       10.51008999       9.82348313       0.43381254    -155.38174423
C        2.29536589       1.75364573       1.79445146    -155.33788961
C        4.36122157       3.12534242      10.83324889    -158.26106690
C        7.35662767       5.77055803       2.40592170    -155.18040001
C        0.35494163       6.18131951       2.70717171    -156.94760293
C        7.53048072       1.78828443       5.89982379    -157.45387444
C        8.17831554       0.69567822       5.82031199    -155.12169995
C        9.29630661       5.59713370       3.33812140    -157.49674002
C        9.03963289       4.23090049       7.22799950    -156.78809200
C        2.26258500       6.19212556       6.23123837    -156.33352238
C        1.13402974       7.61424678       1.99080701    -156.46163908
C       10.30628123       2.27841481       3.99040836    -155.12337144
C        9.10166595       2.05281808      10.84783649    -156.80572553
C       10.75046120      10.05422454       7.48193598    -156.36847162
C        8.31507847       5.80173395       5.99088914    -156.61743153
C        3.92713311       8.22109999       8.03118629    -154.40813964
C        7.74196253       9.29194242       6.92577112    -155.17181877
C        5.40717603      -0.42332640       1.36075873    -155.36398464
C        9.26857147       2.80872431       4.36155136    -156.74428130
C        9.60391052      10.19491195       5.52289851    -157.26906172
C        6.26534940      10.26624501       9.68360920    -156.06665334
C        2.69273800       0.17219971      10.65089831    -156.67012305
C        5.02543585       0.68301987       2.61251166    -155.89561948
C        3.14951586       5.91575253       3.41379667    -154.54579352
C        7.52927150       6.98271445       9.03668679    -156.23858031
C        9.35619604       3.69989844       2.12877916    -156.81737657
C        3.25550960       1.39913502       9.13324861    -153.87237244
C        9.94742831       2.24316051       6.47411597    -155.78235998
C        3.56618054       6.05008602      10.73531295    -154.87030744
C        8.81362943       3.07618208      10.04938766    -156.38440115
C        8.94801789       1.01729811       9.15173870    -156.84182429
C        3.88040220       5.76844739       6.58192354    -155.29987618
C        5.13653031       6.23885646       6.74176062    -157.29239237
C        8.22909184       4.44488870       6.05874845    -156.35965559
C        1.98323289       7.67465288       6.15451877    -157.42230575
C        9.15490466       5.08654550       8.59256179    -157.10705432
200
Lattice="10.992921065237647 0.0 0.0 0.0 10.992921065237647 0.0 0.0 0.0 10.992921065237647" Properties=species:S:1:pos:R:3:gap17_energy:R:1 anneal_T=2900 density=3.0 run_id=255 time=2 pbc="T T T"
C        2.17658738       5.36324832       0.67009549    -156.81247220
C        2.82330092       1.74083898      10.01277024    -155.35796457
C        3.48693258       1.42910172       5.76007078    -156.82700353
C        2.56525310       0.44056550       5.11886469    -156.67188032
C        5.45097183       6.22862205       7.73360791    -156.72545494
C        2.64345674       2.42562101       3.39131615    -155.16966872
C        8.08395231      10.12349094       2.13319832    -155.77497718
C        5.20887472       1.57972673       0.72081683    -156.21070701
C        8.15845133       3.12168178       8.24538335    -155.42743205
C        2.98985467       0.16912169      10.92908517    -155.34904644
C        1.97165734       6.06066121       9.35353575    -154.58878248
C        3.67761578       9.77236605       9.10014892    -153.74108357
C        5.97156359       3.30521959       4.45341920    -153.75802155
C        5.78538748       6.51440502       3.95261470    -156.17077287