200
Lattice="10.87342332846187 0.0 0.0 0.0 10.87342332846187 0.0 0.0 0.0 10.87342332846187" Properties=species:S:1:pos:R:3:gap17_energy:R:1 anneal_T=2800 density=3.1 run_id=230 time=0 pbc="T T T"
C        3.93065555       7.17516546       3.97766135    -154.75979969
C        0.63401735       2.97134777       8.90705171    -153.95817513
C        5.78755354       5.14177006       3.25475268    -154.49554525
C        1.36301623       8.90150626       8.79977451    -154.83279325
C        1.48555972       6.30677038       9.08224430    -153.61406070
C        6.88239854       9.62371904       1.30875785    -151.30829529
C        9.26766879       8.29227923      10.11580668    -154.90131979
C        4.56318433      10.53667341       5.46982124    -154.58301267
C        3.12398889      10.01696727       5.67215390    -154.90105549
C        8.13568018       3.18028060       1.24848647    -152.75193710
C        9.79794390       0.62981478       4.46735685    -153.93184855
C        2.83722410       6.04069771      10.39916810    -152.58216089
C        3.61291237       6.65656841       7.98518113    -140.56997846
C        8.49735199       6.78641883       0.30751455    -152.95680644
C        1.29084932      10.19722688       1.24397400    -153.87490758
C        8.46489482       0.66137162       0.62908408    -153.54283598
C        5.83818020       0.22695662       4.23172976    -126.22127195
C       10.45329600       8.39227123       6.49249932    -153.04846784
C        2.45499065       6.96225296      10.03797472    -155.57876785
C        4.02264471       3.25612273      10.44825073    -155.43602411
C        6.32491812       9.72373279       3.46719762    -151.20014494
C        9.27625880       1.60205757       5.69275904    -155.54447633
C       10.33660242       2.03371073      10.72488149    -154.15869449
C        0.95023064       8.26827071       2.32530333    -154.66479407
C        3.13233968       0.77711813       9.88860650    -154.41632053
C       10.45134966       3.36976088       2.94626279    -154.71832853
C       10.01999008       9.46620663       6.54851920    -154.57623003
C       10.85326400       3.90486379       5.72482476    -153.85843083
C        6.74446916       8.76903534       6.20201582    -155.11645749
C        5.04966129       8.33323941       0.74247649    -154.23368815
C        1.05145025       0.90434479       3.98640359    -153.57673853
C       10.23031471       5.79610005       9.64331295    -152.89437869
C        6.77727428      10.82820076       8.36807786    -154.36521415
C        2.22611596       6.11060295       2.62707344    -150.96911758
C        9.28217394       8.94098766       0.35064289    -156.07152466
C        1.70482230      10.33012186       3.25295856    -150.77151431
C        2.38230181      10.87143349       1.53015162    -155.07388314
C        7.58312543       6.06168342       6.28616524    -153.29807906
C        5.34612517       7.51132822       5.59910624    -151.40662794
C       10.76899497       9.16889461       3.86892712    -148.90459605
C        0.83306515       7.27152574       3.26464749    -154.36368649
C        7.25491115       8.47918250       4.93202172    -154.29538913
C        4.29650275       6.73133407       8.22691908    -143.20332854
C        6.27637916       4.72838425       5.99044075    -153.06544089
C        0.40441958       8.31261253       7.14815588    -154.91643485
C        6.65958035       8.46976611      10.32944771    -150.22973728
C        3.75402766       4.07538081       0.57853680    -155.28042151
C        1.37752138       6.33966248       6.21916321    -153.93764118
C        5.73843829       6.60887757       1.43293235    -154.01638378
C        2.24432894       8.32825938       5.44578010    -154.66176027
C        2.60170575       7.72812253       6.35536371    -154.14219926
C       10.31484470       8.26746607       8.77321074    -155.44892356
C       10.84103140       7.49361541       2.36789452    -155.23545996
C        4.25233490       4.11476435       2.52028555    -151.55652512
C        2.43028623      10.62425883       7.64036313    -154.71584768
C        5.33333803       4.36996360       8.88731644    -153.68510135
C        2.77415824       8.00452495       4.00462744    -113.68508778
C        5.95580889       6.43977409       8.32240948    -154.01279298
C        6.23188511       8.79563174       0.30625214    -155.30804338
C        4.34789055      10.54558962       1.21173430    -153.24088943
C        6.34019528      10.02256708       6.47052413    -153.44472241
C        6.65022920       6.26970288       3.34863382    -154.19916822
C        7.68093187       4.05302505       8.96506142    -156.62723920
C        4.02014382       9.06968550      10.39258968    -155.07724889
C        2.28356025       2.73592728       9.69115601    -153.63779683
C        8.37789656       1.74096556       1.63809210    -152.96576324
C        7.50751164       9.83127094       6.74757896    -154.48207373
C        0.08244686       9.12946758      10.74026739    -153.22952188
C       10.65243187      10.84206438       2.34301613    -154.18124317
C        5.92250360       2.12932074       9.11815922    -153.53038354
C        5.68484318       2.41015952       6.83551233    -155.19093517
C        5.44198527       4.20447009       6.34406622    -152.04850057
C        0.67281808       0.02986288       9.78081826    -155.20740851
C        4.50107533       8.32950983       7.65850000    -154.09369700
C        8.13303794       9.37459804      10.81135783    -155.84339760
C        9.49332495       4.18474570       1.83399857    -153.92327980
C        8.27514271       1.21776905       9.83713172    -153.88964690
C        5.27414311       1.67705157      10.54984112    -154.70626639
C        7.00110370       5.91354390       4.62845749    -155.94589003
C        9.93547096       7.22521583       5.66061720    -155.84409756
C        7.51870040       7.48990757       0.71861911    -155.13086943
C        5.33157653       6.40926327       4.47792582    -154.01773995
C        2.05745829       0.40209485       2.89410297    -154.45797021
C        0.90876810       1.73264739       2.74427807    -153.94771934
C        8.81890086      10.47361843       4.42037279    -151.32420172
C        9.39961778       9.25305491       3.77242549    -153.04067033
C        5.79137011      10.67366767       3.91133347    -127.29648505
C        0.71131543      10.31890049       4.66241519    -155.10256124
C        8.11000803      10.87063973       2.15285083    -154.63401528
C        8.19871342       9.63881135       4.51600454    -153.20880953
C        8.26979299       5.11767455       7.41398933    -155.61843613
C        3.11199550       5.56103839       3.70596713    -154.07550826
C        4.46264866       4.73620224       4.94228623    -153.80400113
C        2.81410720       2.85185972       0.62517726    -155.19955746
C        9.52515146       8.21910109       4.17929812    -150.80864833
C        0.32799899       6.60482179       4.61281063    -154.77442950
C        8.62775696       4.32803567      10.38191197    -153.97282990
C        6.10914591       2.24642751       0.47778909    -155.42601482
C        1.19876230       8.27208728      10.35049865    -153.07187059
C        4.73904020       2.82723142       5.21805799    -154.24611748
C        5.35069201       2.60949112       3.17875832    -154.92737159
C        8.88562019       0.43951247       6.51898698    -153.01481369
C       10.29358716       4.22817415      10.08237091    -155.59564748
C        4.79049324       5.14470588       0.33596921    -154.62784908
C        3.71432879       2.91824197       6.99185042    -154.90124128
C        0.42180401       4.86757494       5.14003031    -155.74639127
C        8.20707508       6.67491187       2.96989073    -155.12745634
C        7.38309793       5.54976265       9.08372309    -154.05720715
C        8.84389886       7.33725558       1.45435299    -141.91594453
C        7.85851662       1.11593944       8.79240233    -154.23279918
C        7.67283117       4.99073821       5.12015369    -153.97109239
C        8.45043317      10.07436807       7.14227335    -153.05510639
C        1.88360312       5.91014052       0.35720609    -153.00428213
C        1.28867464       7.09250570       7.16378099    -155.23301326
C        8.93818232       1.79047225       2.61198113    -150.35154386
C        6.15312891       1.37709732       2.08459835    -154.50853873
C        9.21212735       6.78993094       1.63306858    -137.27285751
C       10.04251981       3.17636617       0.40834598    -155.50770558
C        3.54815026      10.82799417       2.71376725    -153.72285152
C        3.25774287       4.09179968       6.20550619    -155.32382051
C        0.11198865       0.01205645       7.72328386    -155.07750118
C        0.49583245       4.11952691       7.34554113    -151.74082264
C        7.69139211       4.52135427       2.47812929    -153.52650310
C        6.75960497       2.20135717       7.23727445    -152.99402513
C        4.41059758       8.62815927       4.45329751    -154.97803005
C        4.94642901       4.76379899       9.77733876    -154.01598392
C        0.13502617       4.73447337       0.10889951    -152.43910459
C        2.85519786       1.62406538       5.50439872    -153.47955788
C        3.07036117       8.22761498       3.85823855    -113.75766157
C        7.09184242       3.60345249      10.39447078    -153.29561925
C        8.71800637       9.96579694       2.77687660    -153.89778200
C        0.82097608       3.40748078       2.41131210    -156.47067300
C        4.50286945       4.69563350       3.62699345    -156.18455837
C        6.34358779       3.17333248       5.45956760    -154.34284408
C        1.70993281       3.63668167       0.19259551    -155.07551296
C       10.37024479       6.35309116       6.80500151    -154.24956883
C        4.43437775       1.04539484       8.23655293    -153.79315514
C        8.27276143       0.05930865       8.57832637    -154.49062054
C        9.10063126       6.46153181       8.02015006    -154.65033930
C        1.07128446       7.56907697       1.21990024    -154.31706498
C        1.16360852       1.28306395       7.35282632    -153.82292710
C        1.86827160       4.65220504       5.29412846    -155.68797181
C        2.29216113       4.99139061       7.41592480    -154.50268716
C       10.18163439       9.92277080       4.01192351    -149.41476134
C        2.77309265       3.39008331       3.01333006    -154.59931405
C        8.32933585       2.03539611       4.06065820    -155.05696924
C        4.08650432       2.65861724       3.81761544    -155.57123601
C        0.19312613       5.39906787       8.56394083    -153.71246308
C        7.55276683      10.28924866       0.93130218    -154.01948149
C        4.82206966       1.42338548       3.79644488    -154.44443051
C        8.19956154       2.91420793       5.82332710    -153.12949218
C        0.11260952       7.14556800       8.51074805    -154.40441982
C        3.27139989       7.86833532       9.92626117    -153.73506553
C        0.90355430       2.10920491       1.74487999    -153.99932953
C        8.43578667       8.63880435       5.69342232    -153.05668098
C        0.95960570       2.44781419       0.55342028    -155.47823676
C        5.77236337      10.29243457       8.45024832    -154.68466240
C        7.26339242       3.95904605       7.39323196    -155.35086828
C        0.28292104       0.72817685      10.85878770    -154.42976346
C        4.68323779       1.26213261       1.64803041    -155.39966076
C        4.99957830       6.66526715       5.92738577    -151.68844707
C        1.00462603       9.44561236       7.40393141    -155.10842389
C        1.62430460       0.82825910       9.88150616    -154.46561697
C        2.27176259       9.70134441       0.66587213    -153.11431176
C        5.31386373       5.76526302       7.30602711    -155.16952912
C        2.21401384       3.50811432       4.77471591    -154.60385274
C        5.63875074       1.88077603       8.01505042    -156.66559024
C        4.98736745      10.29856718       9.30676962    -154.90916548
C        3.75619147       2.96350803       8.50041829    -153.47962220
C        3.37937298       5.65127693       7.83678065    -152.98510658
C        6.61918558       6.56013202       5.79106566    -154.34522842
C        0.64250189       4.64593108       9.27854221    -154.21679353
C        1.11105727       4.76706102       7.93924092    -154.94597775
C       10.39554725      10.77468177      10.78703398    -151.21026241
C        5.24045725       4.51388423       2.49513532    -151.03419055
C        4.86305160       2.91093503       8.83636358    -156.73777014
C        9.10996066       2.46707102       1.79057011    -151.42767135
C        2.45409902      10.24495033       9.78972359    -154.03389124
C        8.29909686       3.45376895       4.92870533    -153.61848236
C        2.66641349       0.08773124       3.95599062    -152.58136333
C        0.00117980      10.54958016       5.88010812    -154.65201661
C        1.87551330       5.69970715       3.52196706    -153.71433103
C        5.24674209      10.30408001       0.79014449    -152.94103771
C        9.39629052       8.44512694       1.87907978    -154.64143173
C        7.76889787       2.74197291       9.50759088    -154.79247064
C        6.60683337       1.23268738       0.89528179    -155.20493869
C        4.51075268       8.06888474       6.26694103    -155.02420013
C        8.48652206       8.11484670       8.07431058    -154.92979898
C        9.55877208       0.11406656       7.28498704    -153.83593482
C        8.04575697       2.56595393       0.27891418    -152.33717167
C        1.62506574       3.35968121       7.72565426    -153.58002947
C        1.98284486       4.54288365       2.82486101    -155.80235729
C        3.62936386      10.72684958       8.94626127    -157.32844149
C        0.88935252       9.92056350       0.07234991    -156.52004980
C        2.04083282       8.90544244       4.40111595    -153.07114070
C        8.74544002       6.51599679       4.67108131    -153.88977707
C        7.01961027       9.73679177       4.36882189    -154.03613612
C        8.07616994       8.88995869       9.21015926    -155.66838578
C        0.22296607       9.58509664       9.38717859    -155.18753361
C        5.93070216       8.84422507       3.18468434    -148.44843914
200
Lattice="10.87342332846187 0.0 0.0 0.0 10.87342332846187 0.0 0.0 0.0 10.87342332846187" Properties=species:S:1:pos:R:3:gap17_energy:R:1 anneal_T=2800 density=3.1 run_id=230 time=1 pbc="T T T"
C        1.50788285       8.69222548       2.56320295    -155.22318901
C        4.90196758       9.34501145       7.80755289    -155.65513617
C        1.78724285       0.59738588       1.73315844    -155.14870957
C        1.53726284       4.20178436       5.08059618    -156.48399831
C        3.51140896       5.83801710       9.48495241    -155.54018405
C        5.69418346       0.09817788       2.78872863    -155.27272498
C        5.88845891       4.53622911       1.37884794    -155.78776122
C        9.72620105       7.71275838       7.93178175    -156.04331932
C        3.31798163       0.83863235       3.09427182    -155.88228120
C        1.40715146       1.63293810       9.32242735    -155.83110194
C        0.25136745       4.86246443       3.03141256    -155.27882555
C        7.76435278       4.88933266       2.56388798    -155.53799029
C       10.54502420       2.69566300       1.84928660    -156.14181070
C        1.02141351       1.49251871       6.78980046    -154.73306785
C        5.11293374       2.29863082       0.62347122    -155.16960554
C        8.28136231      10.62712942       0.16555004    -155.99496862
C        9.39092992       6.26161305       5.93425777    -154.57655253
C        1.58570394       7.54641675       7.15362521    -153.74947854
C        5.46365601      10.35322788       1.31176979    -155.45987997
C        2.19394150       7.65615134       4.87374017    -155.68276224
C        9.59629626       8.85075999       6.02119079    -154.56083317
C        4.65424925       6.83553408       7.73190648    -155.21875526
C       10.33814644       5.13398469      10.59944568    -156.39288075
C        9.43956674       1.65464145       6.58111772    -156.42823376
C        3.79313936       5.50990068       7.46128872    -154.49399144
C        9.80403302       1.64318086       1.75386144    -155.45004671
C        8.05436872       1.00631684       3.73638009    -154.52374939
C        6.46441327       5.46642873       0.95621972    -155.77644396
C        3.48047407       1.82434297       4.20869985    -157.93292493
C        0.31180194       5.79959042       0.55709006    -156.27007495
C       10.02139275       9.58341126       8.18474107    -156.16323364
C        0.97867769       8.40898368       9.31223895    -154.52942408
C        3.32240712       6.60154889       4.30674551    -156.20611984
C        8.81536700       1.50980745       0.65234777    -155.19269218
C        9.79351842      10.23182611       4.13321655    -156.61730591
C        5.05766413       0.37705444       9.71197862    -155.10139137
C        2.64841797       7.34620441       0.72919025    -156.81434566
C        5.86966963       4.74731488       3.57442045    -156.10857236
C        7.86235494       2.51214136       0.04915342    -156.44254715
C        9.65966658      10.56395483       2.88555646    -154.85938557
C        1.93454511       0.65736586       3.29949682    -156.02238137
C        5.54460864       1.79535442      10.40931300    -155.31820859
C        2.82339310       0.49171795       5.80075388    -155.44427043
C       10.76789676       6.71930806       8.58927591    -156.55002178
C        2.81565122       8.55307828      10.71098526    -156.80786857
C        7.23509977       5.08468458       8.20055103    -156.81839584
C        0.90513312       3.85873872       1.92779272    -155.49002670
C        6.73734707       3.95004286       4.41581682    -157.06530670
C        2.39913387       3.54857432       3.43303333    -156.16693206
C        5.48351088       3.17343035      10.33610224    -154.52944742
C        7.20681799       8.22846310       1.06105474    -157.56319634
C        6.10254574       8.89679807       9.93804796    -155.17611481
C        5.44029989       6.10220867      10.74559536    -156.60920748
C        6.07224151       0.78436527       4.64263643    -155.10914246
C        8.51325981       2.43627748       3.40150040    -156.12817720
C        5.75126893       3.45730281       5.35031144    -156.39618572
C        1.84552439       4.75334963      10.64988749    -155.94992964
C        7.66695952      10.64927858       4.46059358    -155.12116394
C        3.40109808       7.11585094       5.70749253    -155.45987347
C       10.18433100       0.40100642       5.15715595    -156.54084897
C        7.02784145       9.71553423       7.69527392    -155.48297167
C        4.85756052       4.00758502       4.15542008    -156.10525900
C        3.78627823       4.47857822       6.57398476    -155.67943562
C        9.14305936       3.26512592      10.80219153    -155.06360425
C        2.70016459       0.42458326       8.29746585    -155.69437422
C        5.80826741       7.16158455       8.35719356    -155.44324861
C        3.47935411       4.71641261       1.92183408    -156.03603257
C        8.66742320       0.75012377       7.56358589    -154.25654053
C        1.53602327       1.47445795       4.43545422    -156.05171767
C        6.45829153      10.53502065       5.13309306    -157.87533998
C        6.73497666       2.02950272       5.38630247    -155.42971013
C        4.21653959       1.11367776       8.75126817    -157.08726983
C       10.19397572       0.05776658       7.31519341    -155.40000758
C        5.98379709       4.60454683       7.71774928    -154.91998642
C        6.65500263       6.28579555       8.06512254    -156.24450184
C        0.63811772       3.47470029       4.23588341    -154.38825952
C        0.49338158       3.77088146       7.15058065    -155.71883616
C       10.43699674       8.01995434       6.74187041    -155.74992108
C        9.95010659       5.33098937       5.51304310    -155.36393851
C        2.43863702       0.70462393       0.15842034    -155.84191311
C        2.79255607       1.99478388       8.87817189    -155.77141576
C        9.24939057       6.50237239       1.83108449    -155.07087195
C        2.07538856       3.06666420       2.08987196    -156.33332706
C        8.11306346       5.25037381       6.05561605    -156.84880690
C        9.96636235       2.00953911       3.11682330    -156.23311895
C        3.85641181       3.14985676       3.66786665    -155.60963695
C        3.26199438       8.87908526       5.03092638    -157.41334761
C        0.11569866       7.96465211       4.06495320    -156.25269625
C        3.11316983       2.78976160       8.06549223    -156.01140175
C       10.28890071       9.24006117       2.40539696    -156.55825790
C        5.75467231       7.55955185       6.32069923    -155.27539182
C        2.64610193       4.93937215       5.04040800    -155.18849510
C        2.88546948       4.30981182       7.52560502    -155.80914690
C        4.26022901       7.08463334       9.05780085    -156.82807340
C        5.46633087       9.81381910       9.13542622    -157.51774715
C        8.09300200       4.45078575       4.78001126    -156.16470618
C        2.92167797       6.12429259       2.03024211    -155.28073987
C        3.66206024       1.95158377       0.04179700    -154.94222316
C        8.05306391       5.95906005       0.31952533    -154.47571796
C       10.10134503       5.67047939       9.25933975    -158.15119751
C        1.98181188       3.89671959       8.29436692    -156.02730983
C        8.36167341       7.00759513       0.98960765    -156.77744980
C        6.72620181       8.08776101       2.35869561    -155.87560296
C        8.65426636       9.22177207       8.34385187    -155.29993622
C        2.86967039       9.77882842       0.90289102    -156.38548309
C        4.56381499       5.09210026      10.52350569    -154.67225933
C        9.15711870      10.80656265       9.70333424    -155.08160150
C        0.58778356       2.48812197      10.27470002    -155.32722528
C        7.78007575       8.35875934       9.24702016    -155.84591834
C        8.35592137       7.65346560       7.91349265    -156.36570378
C        0.27230097       6.26542962       1.92090984    -155.50366857
C       10.35685961       3.09606594       7.86928131    -155.44674108
C        0.94917048       2.12403626       1.91031912    -156.04324647
C        2.38213871       9.83569643       5.61386148    -155.85942711
C        7.21246130       2.64748286       4.06440953    -155.78041681
C        1.41412132       6.90948423       0.45261712    -155.75024285
C       10.58056942       4.50126018       8.76708900    -155.74895944
C        9.47246972       5.75755377       3.00601225    -155.86706300
C        7.28072465       9.71893761       0.65220642    -155.26648506
C        4.37635717       1.19409760       5.00331876    -155.18149443
C        6.09884878       1.89036639       1.98381259    -154.41821992
C        4.86992360       4.45356935       2.31050460    -156.44307844
C        8.97367317       6.54054898       9.31801274    -154.69787194
C        0.43970710      10.84442391       6.26283088    -157.00496374
C        4.61426767       7.86970537       5.49642851    -156.10529969
C        6.82837937       1.61729124       8.39211900    -155.14136797
C        7.90194507       4.40992343       9.38472119    -156.71511787
C        0.05717355       1.18833469       4.15446322    -156.23756865
C        8.01320194       3.74988488       1.75722132    -155.33980324
C        7.51417705       3.10107859       7.06345191    -154.26640345
C        0.89719443       9.61627074       6.15478167    -156.94067163
C        8.75973857       3.32573439       4.77114942    -156.83919174
C        9.72460266       8.37122028      10.65670513    -153.78768550
C        2.26584745       7.42492799       9.17652776    -155.33055030
C       10.49390823       3.63490930       9.83652281    -156.29542507
C        7.83532361       9.85673650       5.57743551    -156.46164598
C        5.64209976       3.43413154       7.09050499    -155.70477938
C        1.77307478       7.09308199       2.77394077    -155.71382885
C        3.75161376       7.10149802       1.55145266    -156.63136933
C        5.33702412       4.80806469       6.06561960    -154.64954786
C        2.30063153       4.22259609       0.84690485    -155.78323696
C       10.36987509       1.65482630       7.75618683    -156.60638445
C        1.25865312       5.18786250       7.24907212    -155.71545337
C        7.35106483       8.49431830       3.53048095    -156.28123184
C        7.53093300       3.04242734       9.23135156    -155.90701373
C        6.97011444       3.08786738       1.24110341    -157.11069741
C        4.16806587       8.40626532       2.30364347    -155.08709001
C        6.16417631       9.34855619       4.18985621    -155.77373220
C        6.15659753       2.23452111       7.16331343    -155.55929839
C        2.01544338       3.77780783       9.67322573    -157.02857817
C       10.71812910       0.77589922      10.56592292    -154.83657046
C        5.78955425       8.11636898       0.42356224    -154.96421623
C        2.91017389       8.75571540       9.43256426    -155.49167761
C        9.85073437       0.95472789       9.00695672    -155.70250745
C        2.43955038       0.85721068       7.09673546    -156.39758438
C        6.45404002       3.82914127       9.63110209    -155.59328718
C        0.93564938       6.38625510       7.94583021    -156.68255200
C        7.15152664       0.63506011       9.72306951    -155.23637135
C        0.16133224       4.78922105       6.29796291    -156.28378898
C        9.45154925       6.87426522       3.81216785    -156.44410943
C        7.64763745       4.27724591       7.01390172    -156.95878128
C        5.35516099       1.79342982       8.74377638    -155.28958265
C        0.44930725      10.04198701       0.58067995    -156.01477956
C        0.45177660       9.04929783       8.28952825    -156.32497396
C        8.74111239       8.66961964       5.28327679    -155.94033161
C        3.25041418       2.68745356       6.65208856    -155.14314931
C        7.46020138       6.99033901       5.90892269    -155.33572794
C        4.16999047       9.57523444       0.62255677    -155.00704280
C        8.33634921       7.56770691       4.73167890    -156.53967805
C        8.99869292       2.42131565       5.56172341    -154.59427235
C        5.22432109       7.36869065      10.09964878    -157.05678655
C        0.71864956       8.49082794       7.21775666    -158.03123161
C        8.75836852       4.54665672      10.57558939    -156.25235602
C        0.00587420       9.32786406       4.68586916    -156.37883874
C        3.39797741       9.17444006       3.47251473    -156.40827193
C        7.37260508      10.64764757       6.45311578    -155.32986956
C        7.44447841       6.42240924       2.09623292    -156.03444757
C        7.14493734       0.71538101       0.06164057    -155.90011075
C        7.49039688       6.99142635       7.31488895    -156.38258262
C        5.06924432       9.96198036       3.75153764    -156.69542193
C        4.03891135       5.50356147       4.36471173    -154.89395851
C        1.98449762       6.57750775      10.09161332    -155.30118682
C        9.93041482       8.12730765       2.93592216    -156.08433323
C        2.00098173      10.81870826       9.61226932    -155.80250620
C        2.42048927       2.55175324       4.61126661    -155.88739731
C        6.72985528      10.36027386       8.90133229    -156.42606128
C        8.74557050       7.87905652      10.14508881    -157.41938025
C        4.34255169       0.66747923       7.39334070    -155.72257744
C        1.51476573       6.92938260       3.99966916    -155.80181116
C        7.01138996       5.65257086       3.26304910    -154.82345539
C        4.07953446       1.73537662       6.13915656    -156.09223711
C        5.78881486       0.45887586       0.73971790    -155.10320510
C        4.34043138       5.74960529       0.71016937    -155.84926079
C        3.50685300      10.47422734       3.51828097    -155.88393969
C        3.28998257       3.21414044       9.61448750    -154.47841196
C        0.74419014       0.01743140       9.75359121    -155.35283674
C       10.08521974       9.63893096       0.64535181    -156.29969424
C        1.73379997       9.58628184       1.47567577    -157.25705432
C        3.83663305      10.17086970       7.26297923    -156.46672887
C        3.49261969       8.99586583       8.01282137    -155.22974318
200
Lattice="10.87342332846187 0.0 0.0 0.0 10.87342332846187 0.0 0.0 0.0 10.87342332846187" Properties=species:S:1:pos:R:3:gap17_energy:R:1 anneal_T=2800 density=3.1 run_id=230 time=2 pbc="T T T"
C        2.57364144       4.24136362       4.09206064    -153.54082677
C        6.77109818       8.70425149       9.65491489    -155.06344672
C        6.81971325       1.80296582       9.50112119    -154.99872214
C       10.19734649       4.54248133       5.92533069    -154.17952068
C        4.65981644      10.74356203       5.60647842    -154.16374447
C        1.22457581       2.07322475       5.26829321    -155.96606897
C        4.90625171       5.35915154       7.85874496    -154.54089065
C        8.46053458       5.66299848       5.15511175    -155.46759510
C        6.44287302       5.87432346      10.59270416    -154.33278917
C       10.41376023       3.41298273       7.88725508    -156.45190984
C        8.13205933       2.59449667       0.52794493    -156.33378210
C        5.23578167       2.83445137      10.85618895    -155.94596167
C        0.76985359       4.11114350       4.44571874    -156.64793789
C        9.82587772       9.81260128      10.08341476    -154.24909312