200
Lattice="14.526882050296985 0.0 0.0 0.0 14.526882050296985 0.0 0.0 0.0 14.526882050296985" Properties=species:S:1:pos:R:3:gap17_energy:R:1 anneal_T=3600 density=1.3 run_id=420 time=0 pbc="T T T"
C        4.01376298      12.85629061       2.78539889    -137.87523464
C        1.23656016      12.44818692       1.30105370    -155.74978512
C        5.01055405      11.98963136       0.51280329    -153.30562847
C        9.43323424       7.55068106      14.04530138    -156.22661930
C        1.37054886       0.34918993       1.78844803    -156.45268462
C        9.68401180      13.65336611      11.43973077    -153.90015315
C        4.07834950       7.99321347      10.66970433    -136.67663243
C        1.21046407       7.59453772      12.58919936    -154.87476188
C        5.76648941       2.40334189       7.97682715    -153.16037266
C        6.24130055       9.70517747       3.75368821    -155.05800920
C        4.30215065      13.95875022       1.60450865    -155.47003714
C        1.39737855       7.28026315       0.78891429    -155.79740598
C        3.97785253       5.95176526       0.67353743    -155.26085106
C        5.56386846       9.15901028       7.25626475    -153.13092844
C        8.69785441      12.66738304       3.49897386    -155.00941453
C       10.22201488       9.81293788       0.86629318    -154.66340033
C        1.86520807       8.91131242       4.67329796    -154.29421453
C        5.59510126       5.96144017       8.41709336    -150.96363571
C        1.01576172       5.09579779      13.37521990    -155.91050272
C        0.97205033      14.18680774       8.68627649    -152.73045668
C        0.77274006      11.17064933      13.45584409    -154.55647084
C        9.25758970       8.91501677      14.08500335    -155.31994859
C        6.58767953       1.23682891       4.66384096    -154.95332616
C        8.92766969       6.36082774       7.99937287    -153.21493412
C       12.84407351       3.01498174      12.81095222    -154.61744365
C        9.58515637       7.31059528      12.77955962    -153.62894515
C        5.17604429       0.00167948       9.86703599    -154.38465338
C       12.51377579       7.55293273      10.55412845    -152.91087472
C       13.67342773       1.46532659      13.90744127    -153.72218913
C        2.97134298       7.35297020       6.57954447    -155.62887228
C       12.25248076       3.22980527       3.12943904    -155.03045222
C        4.53527805       3.51742300       0.18923733    -155.27158084
C        2.45414240      13.04749344      10.47228400    -153.95797639
C       14.07352712       4.97654662      12.39651480    -154.46101316
C       12.33448501      10.46577596      10.58061096    -155.17756658
C        7.18554788      11.78719926       5.57948486    -154.47755734
C       10.14561800       8.52935711       8.97491111    -151.96528302
C       13.64501315       9.40569127       3.01185846    -151.56491015
C        9.62924546      12.19912352       9.13148184    -154.57519142
C        7.65632055       3.72746719       0.44263410    -156.11002370
C        3.51652234       0.83381543       1.50065597    -154.77404717
C        2.25250928       3.04717331      11.36846188    -153.85139775
C        4.82549610       1.40425703       5.60095559    -152.72070216
C        1.96409256      10.62294229      12.15901480    -153.72020408
C       10.89446425       9.24570672       6.35048460    -154.76434297
C        4.39214468       4.79991426       4.44474652    -152.31452289
C       13.39577543       7.56071914       8.53330842    -153.62312519
C       13.97038625       1.39825743       0.37075944    -152.71233478
C       13.33235107       6.59572742      13.17704417    -154.78220329
C        9.63921090       9.13222271       7.21827695    -155.27310801
C       11.26575683      11.31408776      10.69727635    -155.96595888
C       10.58364708       6.46361995       2.67574999    -154.29499750
C        2.18950619      12.09415227      12.51984803    -156.40005030
C        5.62229558       7.49122254       3.40751262    -152.76641618
C        2.51903398      11.13993950       2.03168614    -155.42950774
C        7.55133477       3.62868439       2.27662390    -154.44857968
C        9.77596696       7.33100555       2.27203341    -154.08649810
C        9.18004521      12.75689769       2.48775760    -153.40969336
C       11.17258140      11.94830238       5.84529775    -151.75565986
C        2.12311834       7.33826899      11.25596571    -156.11782205
C        2.26450848       8.89145417       5.79137396    -155.95433387
C        4.60948136       9.65446412       0.58989165    -152.17003215
C        0.95395129       6.30396952       1.43395434    -155.61235491
C        7.95855233       2.41394652       7.30877942    -153.64986849
C        0.25601305      11.50536322       6.18232141    -152.24367972
C        5.18750600      10.27628731      10.26858806    -154.60132005
C        3.91118867       6.71733195      10.91985724    -156.58625521
C        5.97503733      11.76978153       0.78862956    -152.20032116
C        2.05190756       1.35992389       5.32296917    -154.07783277
C        4.12004165       2.73359603      11.92874920    -151.96083942
C       13.18622516       2.45072858      11.33894326    -152.77132842
C        2.51705833      14.51617574       7.19220120    -154.56553222
C        6.44787281       0.95019464       3.06864404    -154.23271692
C       11.97363726       7.82494860      12.22890363    -154.85613150
C        7.08961235       6.71442657      10.94429145    -154.51844347
C       10.75908823      10.19415232       3.18381316    -151.92760880
C        9.94818315      12.96175578      13.28499343    -154.08017143
C        8.96527978      14.47130220       4.01720585    -152.74449914
C        3.90919849      13.37004833       3.18597766    -139.36715258
C       12.63234420       9.10255882       5.56741302    -154.56061781
C       11.46216027       8.91280869      14.13567312    -153.97399192
C       13.52612515      12.65112746       4.60076523    -155.40963373
C        2.67102875       1.45334191      14.14771590    -154.86693272
C        1.62053180       0.67304642       4.58513431    -155.57261899
C        8.00134853       4.96265892       0.70571884    -156.29440352
C        8.89270348       2.18909944       4.58557011    -152.57671918
C        5.25910900       3.89763509       8.47522995    -156.66663942
C       12.23372656       4.69973688       4.33515572    -151.51726896
C       14.27719400       2.74136791      13.09188759    -156.23815405
C        3.87876467      11.42771703       9.42926840    -153.74926431
C       14.30543426       4.64045268       1.94397283    -151.57045323
C        5.32986944      12.86378649       8.71451675    -152.69791416
C        1.74032047       1.47562615      12.96936786    -155.74166013
C        9.46596330       5.08230232       0.94640893    -153.70757149
C        2.71106484      12.96509696      13.92400192    -153.40175487
C        2.41557353       6.14103601      13.66646935    -154.27265935
C        6.19007876       8.78267688       9.49289614    -154.60625438
C        7.84666629       2.67962866       1.55546590    -155.33201740
C        7.25388234      10.93438412       3.47487377    -153.85472688
C        8.20357725       8.57707792       5.62149660    -152.02976599
C       12.21219772       0.60377354      12.37951835    -154.35935685
C        0.70996504      12.80068171       5.11999958    -156.41520834
C        3.43265865       2.83220451       0.42236183    -155.56013340
C        4.17627521      10.44944774       7.10169872    -153.26189996
C       11.07962389       2.14819174      14.02815966    -152.16019750
C       10.53469149       4.46886114      10.60610564    -152.10016722
C        3.72046524      13.88284726      10.74891942    -154.40278929
C       10.93357061       1.16408845       8.70571346    -151.32691158
C        2.49070656       4.20296110      12.92413115    -153.96667055
C       10.33817183      13.39605144       7.28701815    -151.39711268
C        0.77510213       0.11808220      13.81040170    -154.11314553
C       10.92165857       1.94116914       3.55310103    -152.02291865
C       14.05979921      10.41180859       1.73808333    -153.80433839
C       14.42323275      13.61934415      10.31797946    -152.30404657
C       10.42354631       5.53514881       8.86571253    -153.10606521
C        3.97820118       6.60823506       6.61121307    -154.98968750
C        6.50491988      12.06562148       6.59184874    -153.50494343
C        1.09106327       0.41469454       9.54724121    -156.28578148
C        7.31813474       8.36221080      13.43039299    -153.16249434
C       13.71404489       7.28260198       1.42373613    -151.34130347
C        5.16330421      10.42033587       4.91139355    -155.34481939
C        8.19956783       4.72688762       3.97763463    -155.86610760
C       13.18914506       5.91547711       9.59712652    -153.88467946
C        9.28513267       4.17745189      13.67809086    -154.04361521
C       10.75430889      13.66567037      12.35212065    -157.33377905
C       12.57179616       4.18212955       7.41126658    -155.44225317
C        5.81561933       5.25075604       3.01424086    -152.74068493
C        0.70950890       1.48772704       1.64775518    -155.36465732
C       10.93933779      10.73513341      14.47326333    -155.56026835
C        1.72679594      10.46282700       3.03441870    -154.06425024
C        0.81085860       4.28490724      11.98023247    -155.78401473
C        2.17544417       1.91185389       9.14027061    -153.94557604
C        4.26857902       9.62798162       7.84499569    -154.67559561
C       13.66777677       4.14489715       8.34830858    -154.84602316
C        1.80083946      13.54920836       3.39884007    -154.26805199
C        2.35888963      13.72162792       1.46259554    -155.40735508
C       13.83216297       6.32548383      14.20185759    -155.13914042
C        9.44613411      10.15786417       5.64184876    -152.80430804
C        3.93464958       7.48286958       4.70473413    -152.93415832
C       11.37383683       3.48053925       3.86529825    -157.19368465
C        2.38147894       1.56226448       8.06650159    -154.20122589
C        2.86895752       4.05164909       2.99409208    -151.57022583
C        4.89433899       4.85475324       8.15841317    -155.81679845
C        7.27859256       0.66365770      12.57265324    -150.78234828
C        8.53679487       6.87689522      10.09455601    -153.64315283
C       12.18113924      11.31936102       4.41229347    -154.20022226
C        9.28116683       2.06913644      10.62333452    -154.96216832
C       10.01720037      13.94821823       0.82244379    -151.33958113
C       11.79995386      14.45173449       3.70682449    -151.63127045
C        6.94419827       5.75533277       5.10630073    -152.12888730
C       13.41362897       7.15123539       0.44038969    -155.62102421
C        0.50514036       1.40691981      10.84810897    -153.96656387
C        6.17786166       3.24491322       9.86272150    -152.99668198
C        1.09607940       3.55541080      14.30507109    -152.95880533
C       12.84137151       9.85852323       7.54969324    -152.10385764
C       13.73612575       0.06457591      12.50818294    -155.34959269
C        3.70954102       8.05809053      10.15764626    -136.09701200
C       10.06728906       3.04386118       1.15462854    -153.90715140
C        0.63805988       0.26177587      12.45918377    -156.87008577
C        3.77938627       9.73110795       5.05172323    -154.54659166
C        6.68675286      13.15285691      10.70356649    -151.45869493
C       11.44882459       5.29530999       6.94800431    -155.32807490
C       11.87813754       9.82673842      11.49539778    -154.98657219
C        2.80557673       6.20992249      10.47181914    -152.99557079
C        8.60085842       0.39061188       6.40437933    -151.91193426
C        0.50379372      12.19036381       0.03385606    -155.82159168
C        7.59067357       8.59981249       0.61962963    -154.13620453
C        5.00956622       5.63006746       1.22597006    -154.95981383
C       10.68179069       4.29558450       5.97975857    -153.51146263
C        4.04755251      12.30933898      12.38024469    -152.60071724
C       13.74314224      13.04492218       3.55218583    -153.28798176
C       11.24518676      12.84692078       9.99336175    -154.19042630
C       11.72210430       1.63616273       6.46832666    -152.24108789
C        1.49911612      13.60307404       5.69725429    -154.17635467
C        3.79466855       4.56889325       0.12431699    -157.06063763
C       11.28766336       3.62425370       2.16919761    -154.79443161
C        0.67277332       2.49401869      14.28362941    -155.98736360
C        2.59264169      11.85043477       5.14074397    -152.08767908
C        6.75431739       1.69460437       6.23150943    -154.53009374
C        8.83288178       5.73951299      13.51037801    -154.52278449
C       11.79932920      10.34191976      13.16325816    -155.39547956
C        8.19493376       5.87610926       3.17832200    -153.85877533
C        1.19853169       4.13468475       9.14599420    -153.97488575
C        4.36216120       4.33566416       7.47137881    -150.08850599
C        4.40033784      13.91204629       4.72071370    -154.88509535
C        2.20361179       3.75493753       8.24367145    -155.33646550
C       13.88668236      11.31777759       2.19050854    -152.69194899
C        4.24131206      10.68228461       0.70201593    -156.21342942
C        3.67031844      14.18757767       5.99995093    -155.16323788
C        5.71916083      12.28025616       1.66350232    -152.10645857
C        4.31884203       0.90061294       8.38737136    -153.29975012
C       12.65442506       0.81724171       7.82471617    -155.19511316
C        7.34121795       7.96378201      10.37174345    -157.59063315
C        6.88983867      13.91977460       4.27452052    -153.60577231
C       13.40803612       8.19455606      12.68939127    -154.45147801
C        4.83161192       5.83512893       3.24681625    -155.98281346
C        2.39455313       7.83222656      13.60208621    -155.77973762
C        8.75394270       1.10466914       9.64659055    -154.62088636
C        8.77525364      12.82954662       9.51557260    -154.13757403
C       13.83515551       6.19859152       8.42203250    -156.04396549
200
Lattice="14.526882050296985 0.0 0.0 0.0 14.526882050296985 0.0 0.0 0.0 14.526882050296985" Properties=species:S:1:pos:R:3:gap17_energy:R:1 anneal_T=3600 density=1.3 run_id=420 time=1 pbc="T T T"
C       14.18936447      10.22239258       3.34250482    -155.31479831
C       14.32192227       2.06142267       8.44004584    -156.78975288
C        3.91705753      13.84670438      12.42899691    -155.87786124
C        1.65256358       4.35481059       1.20234209    -155.11623209
C       12.27215016       8.82342478       9.98512501    -157.73125533
C       14.41335447       3.62605503       9.31947422    -154.18387905
C        1.36960316       7.37573382       2.15959534    -157.25070896
C        3.63372522       5.96581276       9.70110994    -153.89719966
C        7.66465898       4.02516659       5.17492572    -157.11473975
C        7.07145375       6.62048123       3.24935845    -156.98206902
C        1.37677072       9.75379894      11.52283906    -155.37517563
C        1.04271780      14.59544893       6.86203422    -155.60675103
C        9.57482776      13.76103936       6.68477721    -156.07687920
C       12.09750798       0.51675606       5.11173378    -156.25501068
C        0.66983598       7.17055614       1.10144853    -155.73731890
C        8.57597387       9.22374207       0.64222329    -155.78048871
C        0.03495066       2.70063453      10.46927694    -156.89571068
C        3.23400354      12.17868420       4.78184282    -155.71997334
C       13.23577635       9.86354954       9.99115367    -152.63330118
C       13.72148266       0.34496551       6.53102469    -156.17789012
C        8.89751188       8.43740194       8.24605385    -154.66426544
C       12.62508076      11.46040252       5.72998336    -153.84564283
C        3.49264014      10.88375794       1.70907315    -153.87571980
C        2.57474457       9.79822215       5.17111968    -155.29344981
C        7.77472917       4.14241305      12.19697355    -155.56300371
C        5.14491318       3.01807596       7.20023456    -154.66516300
C        1.89155984       1.77634714       1.66168646    -153.97776782
C        2.27110369      12.64291977      13.64135237    -156.22079202
C        1.00925368       8.50268575      10.11697099    -154.41966783
C        0.63630939      13.01527281       9.05835352    -155.08117811
C       13.36917671      12.99592300       9.63451871    -156.77634018
C       12.37963456       2.48174348       6.75546501    -153.98954295
C        1.58929900       5.42641510       3.10240451    -154.71079662
C        9.19033024       5.41784424       2.38572079    -154.34402003
C        3.74792104       9.77115857       0.92731625    -155.71990126
C       10.85938183       9.83031203       1.16124263    -156.01160684
C        9.55575396       9.03185648       6.50391752    -157.01834464
C        2.36114130       6.67545095       9.12163262    -157.30788729
C        7.18662287      10.01429499       6.61076274    -156.52597885
C        2.01965788       5.52126111       8.51230255    -157.67318040
C        0.03540622      14.10625618       9.62411747    -157.15136090
C        1.15574421      10.26563910       7.24066287    -156.61024360
C       14.49297631      12.95511699       4.06284932    -155.47637445
C        5.73704342      13.01896264       0.67675223    -156.14279061
C        0.90958910      12.42793644       4.80942937    -154.16227891
C        5.62276044       7.90056102      12.00062821    -156.51948500
C        4.04925216       9.75464150       2.04760761    -153.86691994
C        9.70501767       1.26648263       1.74284815    -154.97015322
C        3.60593530       6.66926250       3.25294659    -156.26152496
C        7.51411690      10.02848775      10.14400552    -154.95003577
C        1.91038668      13.30078415       6.71048979    -154.39352670
C        1.98367480       0.63212856       3.80941333    -157.12400525
C        0.01582152      12.95643894       0.74976144    -154.46664360
C        1.70603703      11.17287194       8.90269798    -155.92185114
C       10.39667158       5.05550022       1.09894991    -155.89541961
C        8.25235852      10.33735832       2.51209013    -157.23220352
C        9.11001111       2.54128917       5.30990951    -157.24919031
C        6.18853891      10.75528219       0.21668443    -156.96718618
C        3.28032976       4.46191729      11.51229254    -156.30908233
C       12.46726071       4.32600379       0.81147018    -154.23818886
C        1.52827157       0.07858593       5.33289104    -155.73550667
C        3.02515055      12.63103678      12.50164584    -155.90572374
C        5.17565206       3.73201411       6.23214861    -157.71630151
C        6.40681984       5.46870286       9.41488678    -154.46408712
C        3.52131621       0.39095036      11.85432798    -157.65555033
C        2.02067477       6.06906984      14.42536820    -156.35953145
C       11.23652874       8.44367756      11.07093681    -153.08362241
C        1.12514188       9.92589891       8.45481968    -155.09948221
C        4.58562822       2.02712470       3.63228706    -155.40463513
C        2.36106867       1.62361150       3.33101405    -155.21612679
C        9.07489964       4.52509470       0.83538724    -155.42096188
C        8.59032643      13.07638740       4.58080530    -155.48281053
C        6.37048811       4.18122888      14.07718789    -156.24526649
C       11.48289013       5.73663667       7.31444491    -156.60959078
C        6.36806212       1.67153568       5.59366309    -155.14673632
C       13.72903663       1.64566331       7.05633127    -157.29701297
C        7.84605616       4.66401528      13.66543794    -155.85567248
C       11.19723352      11.05372246       4.63770709    -155.18353510
C        8.11079406       8.65806528       6.00275462    -154.70753842
C        1.98450283       4.26597871       7.99279219    -152.46412119
C        6.39877195       0.35454744       2.09787062    -156.55681998
C       11.24918165       8.45884362       8.85147619    -157.31622752
C        6.28942811       8.84379147      11.09858147    -156.17224857
C       11.68744316      10.56804521       0.38568581    -156.08517095
C        8.46417499      13.22437275       5.92154935    -156.00697468
C        8.70930160       5.73098571      10.62448214    -154.70301370
C        2.85116209       5.55593678       0.93276964    -155.57702296
C        7.79557524       5.72379490       9.20809662    -157.06525107
C       11.69637719      14.21687839       6.10056412    -157.31697831
C        1.47366502      10.86147370      13.79058703    -153.67885574
C        7.58049023      10.19264152       0.71053885    -156.16234190
C       12.84427688       5.65782833       0.38150498    -156.84564116
C        4.44914817       4.84563036      10.98470524    -156.55813873
C        1.75169502       4.19680170       2.45452010    -156.00083998
C       12.60349381      12.80772725       0.31811402    -157.55222662
C        1.74366165      10.78060255      10.88637277    -156.39032372
C        8.24139072       7.00526928       3.38761079    -153.83236044
C        2.48575290       6.69806930       2.52237516    -156.69562395
C        7.41720807       4.78637521       6.23601277    -155.53530746
C       10.19502393       8.53567630       8.02469323    -157.45619332
C       11.72909173       1.82605813       5.45647122    -157.25083494
C       14.10926325       2.18004919      13.10329119    -155.95723698
C        5.63975689       6.46093248       3.50725419    -155.54559890
C       13.81545706       9.34005881       2.69822307    -156.64835766
C        5.53818493       6.60416754      12.86680808    -155.49647488
C        1.13421246      11.72394921       9.91456795    -156.81508198
C       14.23689643      10.70403135      11.95988030    -155.21103113
C        6.07628970       1.24530244      13.56021974    -153.71870491
C        3.32096145       3.33855351      13.75001345    -155.98297909
C       12.57977141      12.07135960       7.22147286    -157.18353729
C        5.18725904      11.27713137       7.11645803    -152.74626080
C        0.39248004       8.23527491       5.21539761    -154.60561849
C       12.59113144      13.63028289      13.77042372    -152.88329054
C        7.35510565       0.81574108       2.97156088    -156.87973527
C        0.39593162      10.27505252       6.11371095    -155.81824235
C        7.16921967      10.45136529       5.29189617    -155.04386779
C       10.42786080      10.03698598       3.92073283    -156.78061143
C       12.26070298      13.13253380       6.54398266    -155.26439668
C        6.10242356       4.82157384       0.56758126    -153.75547569
C       13.65230564       8.64253605       1.64146504    -155.71612639
C        6.21098295       1.24906490       3.18217162    -156.56284234
C       14.26077862       7.36860112       9.79371881    -155.06091684
C        1.87678600      11.38916269       2.94542702    -154.00904561
C        3.21721046      10.80659114       4.57211822    -156.40487374
C        5.13496227       4.70290374       5.35562561    -155.16687564
C        2.53029232       8.57206614       6.82743119    -156.01137075
C        9.77512440       9.39286403       5.19597517    -155.67076721
C        0.16098981       4.94418073       5.37326124    -153.23472705
C       14.46480868       3.15750497       0.35031721    -153.65815253
C       14.06886399       7.73729339       0.78477849    -157.16463532
C        2.44708234       7.88126932       8.04138461    -155.15173873
C        7.73570996      11.08335729       3.68289872    -154.51691617
C        3.57801463       2.64858472       4.16447938    -154.69583760
C        3.34876590       3.14114771      11.72763904    -154.87372219
C       11.36105317       1.21664526      13.78271346    -153.94338889
C        1.57308700      13.31987247       2.14081208    -155.85846105
C       13.50934660      10.02209593       6.00885591    -155.03278343
C        3.71777776      13.45587314       4.05561493    -155.32328468
C        0.59902615       3.80530223      11.93877274    -155.23402350
C        6.06702155      10.43361344       7.38166079    -156.72040826
C        6.24565861       8.82593793       3.05603470    -153.42794883
C        5.09504240       5.72465199      11.99715628    -156.24970484
C        5.07621556       9.81135445       1.05560024    -155.37194288
C        9.36713692       1.32594988       4.77163042    -155.20658699
C        9.88593546       5.88072881       6.21387380    -154.71625700
C        6.29250781       2.41154958       4.15410719    -155.90225105
C        1.42514088       4.95141511      12.52167841    -156.28809005
C        7.21399152       8.14515013       7.80543899    -154.22544770
C        7.11103951       4.92888392       8.25953480    -154.94126236
C       13.15884199      11.94934831       8.34775656    -154.54287268
C       12.42642565       4.93973550       6.52367408    -153.32655637
C        3.82649695       2.05288086      14.13397347    -155.66556512
C        3.01432803       1.44239591      11.41608100    -155.08426647
C        0.96558442      11.82010264      14.31635848    -156.64211110
C        8.01748789       4.53338955      11.11630426    -156.64028540
C       12.60209923       6.96068628       0.82912615    -155.39951273
C       12.20237755      12.70814547      10.30124449    -156.44109781
C        1.59317768       6.00028505      13.22219372    -156.49063232
C        3.65862430       3.66687557       0.71442770    -154.00833264
C        9.58913673      10.19939652       2.43596927    -156.46626974
C        2.44862218      13.07646004       1.15005548    -153.70437900
C       14.64396872       7.94579773       3.70112996    -156.49338916
C       10.78064613       2.50160172       5.33348664    -154.45084752
C       12.17162414       7.79111549       7.93780794    -154.39907626
C       12.43043507       6.21022755       8.29245272    -157.42358556
C        7.96003407       1.25423356      13.85193406    -152.13077692
C       10.77204621      13.93312480       6.88059958    -155.76745989
C        6.19909996      12.22875836      -0.13287942    -155.69967010
C        2.73552811       8.67276649       5.28655028    -156.17145393
C       -0.08100741       2.57396012      11.79672889    -158.07821361
C        8.61988864       0.51036133       2.23365338    -156.66662116
C       13.55413297       6.41191878       9.16018696    -156.18168891
C        5.96666985      10.18083117       5.54358893    -156.29200466
C        0.40844508       0.97924259       4.62598390    -155.56193908
C        4.61180566       5.61754529       3.82635168    -156.04538087
C        6.88728194       2.13055610       6.84936678    -156.10079379
C        0.31848446       0.88074888       9.06765072    -155.33939341
C        7.90205729       3.04175478       6.06992692    -157.29543340
C        9.84162847       9.63536127       0.50844378    -155.67722978
C        1.52982595       7.93122727       3.39218675    -155.13427739
C       10.61750924       1.72185680      14.91344238    -155.81083317
C        3.17274367       0.84799367       1.70875355    -157.27234159
C       14.46974782       7.06244709       5.33649370    -157.23846064
C        6.76890238       4.18796935       3.90157187    -154.92034103
C       13.80884732      11.49879707       3.93881880    -157.43104056
C       13.80170010       0.58778670       5.12380562    -156.94304334
C       13.76162043       2.23083517      -0.07258778    -156.01459152
C        6.14649812      14.39340906       0.80087863    -155.27177467
C        2.58091850      14.20082618       2.96102890    -157.45091212
C        3.99834996       0.76928702       0.52055774    -155.60382383
C       12.61836934      11.50415749       4.68734545    -155.03284852
C        6.38857408       9.65424622       9.43048866    -154.95032457
C       13.88469218      11.75378743      11.71094765    -154.82835745
C        8.70918538      14.57946936       3.87336067    -156.61795259
C       13.96289038       5.92027098       5.48562667    -156.71997144
C       11.97904126      11.86686468      11.50260311    -154.63055012
C       11.86361066      11.75320635       0.13264322    -156.74757965
C        8.63782934       5.67851461       6.45178054    -156.55861266
C        3.73300193       8.20213909       4.20175536    -154.88189349
C        5.62656648       8.71198907       4.83867198    -154.66178870
200
Lattice="14.526882050296985 0.0 0.0 0.0 14.526882050296985 0.0 0.0 0.0 14.526882050296985" Properties=species:S:1:pos:R:3:gap17_energy:R:1 anneal_T=3600 density=1.3 run_id=420 time=2 pbc="T T T"
C        0.45215211       3.34615107      12.67213333    -154.85959110
C        8.94330061       0.87995571       0.41452022    -157.74182603
C        3.98357612       0.95939451       5.07020143    -155.77428294
C       14.19418740       4.15773891      13.55568735    -156.81261563
C        1.54820245       0.06513244       1.49474353    -159.44428989
C        7.82500670      11.38895931       0.98823037    -155.01869332
C       12.20833357       7.15861504       0.74299191    -155.09190874
C        3.70085394       3.98513050      11.49622581    -156.07862236
C        4.32835714      12.79588784       6.02900470    -155.69683081
C        0.71616947       1.53461982       3.78146361    -154.79653395
C        1.50581301      11.59856769      11.12689436    -156.02355143
C       13.68395972       0.03780127       0.40454025    -153.01927534
C        3.15127294       8.26030473       3.16690387    -154.78961950
C        4.36569123      11.67262574       6.91794819    -155.92873169