200
Lattice="12.58375331064208 0.0 0.0 0.0 12.58375331064208 0.0 0.0 0.0 12.58375331064208" Properties=species:S:1:pos:R:3:gap17_energy:R:1 anneal_T=3200 density=2.0 run_id=323 time=0 pbc="T T T"
C        4.58685358       9.46344809       7.65116110    -133.79374978
C        9.80969006      12.25136605       0.98499455    -154.32980667
C       10.59218559      11.94686439      12.31984684    -156.76701275
C        4.31573662      10.86813472       1.54533524    -156.83058493
C       11.20136509       7.05057631       0.56374082    -154.59633598
C        0.02307722       6.47632931       1.21205202    -156.62589262
C        5.90797151       2.70478969      11.39276398    -152.20841127
C        2.82009462      11.24157018       1.77430922    -154.72417871
C        6.21522901       2.67236136       4.64790996    -155.28904455
C       12.17033926       0.28851149       2.40528378    -156.98806338
C       10.83969544       3.21489730       7.83170021    -153.00142101
C        9.45324266       7.64052783       4.48315087    -153.91113214
C        9.15733571       1.29841683       6.29698566    -153.92939150
C        2.15793752       4.94755429       5.44501523    -155.50272098
C       11.96273250       3.68589460       2.94778196    -154.06270748
C       11.98474149      12.00818502       1.52229439    -152.40089948
C       10.20952624       7.49344892       1.89662330    -155.44079341
C       10.80503978       1.33254397       4.85731619    -155.27315421
C        7.16273530       8.40364438       8.44319512    -152.64648468
C        7.32087533       4.13512201       7.32733080    -155.47036010
C        8.55254794       2.40808995       7.55474439    -154.33382964
C        6.10099370       4.09694290       2.44594188    -154.32785593
C        7.11136842       5.13466212       6.08713899    -155.35883494
C        1.36192704       3.22105075       4.05088636    -154.07979107
C        9.15088024       7.48051283       7.38575716    -152.93868255
C        0.38820250      12.57391282       8.60078146    -152.94815462
C        0.24609165       9.63877752       3.09842208    -153.94480699
C        4.68473002       2.77932326       0.63379458    -147.38531135
C        7.35595884      11.13414268       4.41959034    -156.88394913
C        7.01580740      10.16781110       9.57335459    -154.51857087
C        8.51694850       5.07541781       8.44574962    -156.47458228
C        4.55647640       3.46638361       6.36428357    -154.72692189
C        4.04229166      11.66213180       6.53086730    -153.04942347
C        8.86919292       0.36098006       3.14065315    -154.08228241
C       10.81491803       8.38671924      11.37067949    -153.33479602
C        2.98374633       7.16925369       7.98390071    -151.21623488
C        9.41604509       8.49258635       3.69810084    -152.81104473
C        7.27002438       3.75898104       4.77237586    -156.52874669
C        8.50567346      10.16094037       0.52148080    -155.02695255
C        6.21122738       6.43407307       6.80833906    -154.71978708
C        8.76094748       7.29210887       9.74097018    -155.08919999
C        1.12797870      10.21340203       4.24394631    -154.03581497
C        6.82535229      11.90922638      11.40017581    -157.25125373
C        0.98997016      10.84182209       0.12544756    -152.97572593
C        6.33994659       9.12338474       8.71623740    -157.40060675
C        1.84250058       9.14364458       7.60146786    -153.46047117
C        9.79138070       1.84063818       9.29817307    -155.96036439
C        7.30203745       4.35266994       8.92558072    -155.34842902
C        5.54034974       6.93574956      12.43926666    -154.94738020
C        2.95474078       3.43430762      11.63552975    -155.80462354
C        4.66138716       6.16786377       5.84531700    -153.13485772
C        8.81557355       6.01507183       5.08337074    -154.12527961
C       11.47022956      11.21641526       5.43762856    -154.69964029
C        9.92461748       1.66426429       1.03306449    -156.88052839
C       11.81073334       0.40378370      12.10426197    -153.64685247
C        0.95500243       5.00864841       6.99436468    -149.82668708
C        7.54311700      10.75405041       1.33406661    -153.62584686
C        1.61464655       6.23560211       4.89390975    -154.70697153
C        8.90547188       9.98377370       8.87590006    -153.79444619
C        9.20728062      11.85077485       7.40229221    -153.64366500
C        1.14368323       2.12319378       5.42606409    -156.77080792
C        2.64278954      11.43103117       3.84841377    -155.04622730
C        4.16539852      10.22362004       2.36740668    -151.35818111
C        1.55655995       3.58489739       1.89595636    -153.70014630
C        0.60498785       5.46443196       0.26587583    -153.31509410
C        9.10294872       1.58020482      12.42477017    -153.76043354
C        7.21825482       9.75198097       0.31501161    -154.09908620
C        9.64634036      11.73900595      10.07933473    -154.56627673
C        8.09331644       9.89614045       6.09345603    -153.79475332
C        5.03468420      12.25390797       1.42784074    -154.18607859
C        9.59069500       5.84613495       8.01095578    -155.42656082
C        8.63367540       8.42175241       7.53527732    -154.98947861
C        1.55135028       8.82469677       1.59456288    -149.89403195
C        0.36682018      10.01105528       7.09149868    -154.63029012
C        6.68280354       2.50972893       2.60827230    -155.83257281
C        2.32278469       8.80788488      10.93531938    -152.27145383
C        9.19448295       2.39199533       3.68185521    -154.93791335
C        9.84591869       0.44518173       7.47479980    -156.03201216
C        4.96011287       5.03194094       7.45173378    -154.73978228
C        1.51940013      10.47706942       6.45520119    -153.35110765
C        8.12975899       4.70672642       3.99580728    -155.44075784
C       11.59211580       9.71590335       2.29644689    -153.69369902
C       10.24494950       2.91010621      10.43876447    -154.29176925
C        2.74210052       4.56931183      12.34107563    -154.82333736
C        5.94796268      10.95418242      10.65202134    -155.44036601
C        9.34426736       8.92267387       1.61235631    -154.32580988
C        0.98696391      10.00841269       9.29722929    -153.48522685
C        7.07128917       9.62796808       4.02734216    -154.06305244
C       11.53743939       0.08624527      10.24526410    -153.75585352
C        5.17053840       5.32227330       9.06497096    -154.73764812
C        3.49923979       4.15929540       4.44561354    -155.70461527
C        2.13901156       1.74972056       4.05901547    -154.49595960
C        1.98566594      11.94824860      12.10242475    -157.33055446
C        5.51418812       1.93838878      10.56392248    -152.93049179
C        6.52520461       5.86862211       3.24731304    -156.44809198
C        6.79288621       0.29384071      10.66455476    -153.66380037
C        8.49213334       9.38604542       5.35935762    -151.52730391
C       11.05185752      10.83784563       2.93265629    -154.68985822
C        8.61122598      11.41019248       9.99054376    -151.39529058
C        3.97328236       9.31502272       4.56552412    -153.86778014
C       12.03283659       1.96597236       4.67380732    -155.09693286
C        9.06517230       9.06670751      10.32617763    -154.55555639
C        2.26458483      10.60266786       0.12072840    -154.68959650
C       11.51024590      10.41216242      11.55734689    -152.09081642
C        7.47320166       0.25799337       5.17940994    -153.10361698
C        3.34073483      11.48168078      10.01153346    -155.68118586
C        4.59960093       0.63953151       5.27309599    -146.59989470
C        5.46358884       3.33212754       8.28997534    -155.10102369
C        9.74747598      10.89696410       8.83911775    -155.34904740
C       11.68635553       1.07024067       1.69124386    -154.22157982
C        4.75311013       2.61572188      11.01415659    -156.40876588
C        2.97214411       0.06939713       3.93481382    -156.62058108
C       10.66807821       2.16307169       1.94955057    -155.64936566
C        7.78008166       3.61435596      11.61530766    -154.60556693
C        6.84529754       5.15221645       0.47603206    -152.92974509
C        7.87390612       8.32196324       6.19938607    -155.59182856
C        8.17995559       1.04218771       7.70281741    -156.13075037
C        0.30606205      11.44317449       6.88618216    -154.65362673
C        7.14607441       4.76941868       2.40960000    -153.22206358
C        7.36769948      11.22558882       0.23936690    -155.26517490
C        5.54520707       1.21052687       2.23701383    -154.39204098
C        3.75119169       7.09629309       3.04501663    -153.58799620
C        1.65334160      11.27671661      10.37476350    -155.21484451
C        1.23724218       9.85920713       1.49240798    -147.98710895
C       12.29342095       9.46094392       3.94369795    -153.02189213
C       10.46711567      11.46037649      11.22849566    -155.92636169
C        4.32384056      10.86366749       9.79655262    -156.55184846
C        4.17387997       1.34623510      10.23799069    -151.49371852
C        4.30020827       2.91259779      12.39202725    -153.53982932
C        2.48811004       0.38773187      12.24357671    -151.11983376
C        2.34548578       1.22720915       6.56197434    -153.94832076
C        2.52227493       9.19582941       5.07146651    -156.21367405
C        3.72740840       2.77124449       4.93190010    -156.16384656
C       10.13109170       3.38774773       4.00179714    -154.45880548
C        0.74805380       3.95138663       7.89430439    -154.48639910
C        4.20537710       1.03731654       4.66742736    -149.58804010
C        5.14537089       9.81220681       8.44749876    -153.11513691
C       10.49809687       7.94008408       4.00573586    -156.35424622
C        6.62461626       2.15562211       5.96245916    -152.75754621
C       11.92013650       2.62966468       7.35773314    -154.79165667
C        8.92000612       4.14315044      12.27626930    -154.28807046
C        7.58079276       1.60522132       1.99175647    -156.22581473
C        4.43553395       3.23985088       9.31534990    -155.55486297
C        6.87622841       5.92881020      11.37835558    -155.46104491
C        6.29657040      12.43778177       3.02962670    -155.76359488
C        9.00395234       3.58065667       2.90083198    -155.54868351
C        0.51085382       9.01881375       1.63483090    -149.74141756
C        1.96935739       1.94777626       1.22625153    -153.45761421
C        0.22492830       2.82087481      12.37620947    -154.99726315
C        6.00808785       5.12526205      10.32311978    -155.64291702
C        4.20131255      10.57664466       0.04030954    -152.98699789
C        5.46225497       6.57912599       3.55502356    -153.57893163
C        4.02467441       3.10204620       3.47402194    -153.91684104
C       12.10166972       5.00148826       7.70006157    -152.39786946
C        1.40620926       5.26781081       7.65213005    -146.03518238
C        2.77325789      12.11406472       7.67342176    -139.20511313
C        6.62141999       6.43523077      10.05731316    -154.64135733
C       10.05009008      10.63889649      11.82275083    -151.15938513
C        5.94154496       3.90078735       5.09530014    -156.56317369
C       12.45066754       7.49639352       6.45165257    -153.57072930
C       10.50742143       2.26054544       8.17714941    -155.77876020
C        6.86846423       6.92621108       0.94987455    -155.48810400
C        7.49348668       0.15880067       2.12722058    -154.19528256
C        5.97611253       8.52951967       7.09287030    -154.61619347
C       12.38591154       4.45486260       3.60416312    -153.60474276
C        5.20475362       4.48742935       3.94035067    -155.94590421
C       10.64552812       9.03156109       7.00381508    -153.44441591
C        6.64798429       5.44666370       1.75695622    -156.19964833
C        1.92393004       4.57067088      11.01580506    -156.32698062
C       11.52557291       8.59089063       4.73461202    -154.85888755
C        2.90226653       8.95735470       1.68914237    -152.75324249
C       11.79729390       2.99907334      11.53699896    -156.23139341
C        7.39257756      10.41937291       7.15766405    -153.99198478
C        6.21784643      11.79894237       3.89484782    -153.81052097
C        0.56438134      12.53726893       3.35586050    -151.28971092
C       11.72453463      10.69179858       6.90484386    -155.88422650
C        8.60709851      10.83511495       3.35048724    -154.57257825
C        9.79759707      12.12113679       3.23657910    -154.19167769
C        9.83182488       6.74620048       9.47418203    -155.22759933
C       11.94506491      12.21211732       3.33624243    -155.80934436
C        2.59166175       8.51638223       4.00204882    -154.11871230
C        1.40463630       9.38904036       0.57020258    -150.92819303
C       12.51987818      10.81141974       5.60047491    -153.79222058
C        3.42435387      12.12929106       7.43820625    -142.37987447
C       11.88071160      11.15637817       8.01989024    -153.33584616
C       10.56687967      11.88127787       5.71331343    -152.74322219
C        0.78539735       2.96996712       0.66886298    -155.99615322
C        4.99939935       9.77644378       7.27844291    -135.73396237
C       10.77823639      10.89887683       8.74241161    -151.61873958
C        0.76628137       6.55038470       6.51382890    -156.65215180
C       11.17920510      11.95367220       7.67140836    -152.12211768
C        1.04526821       2.37586296       6.91381608    -155.46330798
C        7.23447528       7.44940579       2.43382373    -154.05699418
C        0.57121557       4.18287735      10.37722992    -153.75841784
C       12.19520476       2.35733968      10.18745434    -153.55056590
C        4.51677466       5.45596309      12.20694540    -153.73052814
C        8.59115489       3.71820968       6.06412330    -153.81321508
C       10.65270086      11.81765441       3.76022683    -154.06826426
C        8.92393225       0.54867807       8.56344547    -155.54112404
C        7.40840792       0.52569636       1.19291716    -150.89098184
200
Lattice="12.58375331064208 0.0 0.0 0.0 12.58375331064208 0.0 0.0 0.0 12.58375331064208" Properties=species:S:1:pos:R:3:gap17_energy:R:1 anneal_T=3200 density=2.0 run_id=323 time=1 pbc="T T T"
C        3.85479374       6.74112923      10.26992825    -155.68558790
C        4.36417149       2.36845113       2.72562838    -156.89526143
C        3.60840385       2.92915801      11.80202539    -153.85702289
C       10.23241609      10.79503570       2.57969460    -155.87396057
C        7.14608700       5.66520574      10.15795802    -156.52010099
C        9.02452677      10.38766185       1.68006949    -155.83067307
C        5.57002223       7.52258031       9.91281392    -156.49731271
C        8.12816086       1.95233157       1.98804427    -154.37430393
C        6.65958651       5.31594367       4.43111705    -155.71936279
C       10.52987085      10.20863279      12.55236943    -156.89610429
C        8.24547919       0.59458989       2.74571205    -158.93033082
C        8.32205133       9.34197712       8.44956250    -157.43359819
C        7.62648436       9.15162268       0.19870627    -155.58665497
C       11.53838317      11.97963248       4.07025276    -155.83365653
C        3.47502864      10.46827337       5.09137401    -156.10844826
C        7.54448863       7.78685172       2.67799888    -156.01979639
C        3.31594483      10.66554887       2.84153734    -155.30752461
C        9.80255507       7.54144336       0.88008254    -154.79102742
C       11.82164346       2.03066544       9.82618736    -154.19688262
C       11.80848085       9.97833752       0.29249047    -154.78474340
C        6.65713268       4.11258451       8.20636888    -155.34723661
C       10.01450323       8.88877324      11.32136376    -156.07984219
C       12.28188165       9.66212039       5.70380011    -156.15414428
C       10.69022561       5.46838325      11.15556023    -153.98683367
C        5.16315173      11.64135603       9.55832959    -156.73494657
C       11.79458839       6.68102923       5.17717004    -156.22810729
C        1.85902304      12.16635021       0.79018295    -156.90173634
C        8.32307061       6.30940582       4.95316664    -155.36816079
C       10.58570496       4.66206668      12.40078554    -156.80315551
C        4.33184382      12.00529075       1.49035682    -154.90818268
C        3.03618283       2.21101579       5.58768982    -155.96780401
C        0.69228009       4.37763610       2.55739619    -155.52168778
C        6.91111057       1.37198146       2.19922481    -155.70634043
C        6.27754376       0.09403033       6.88268387    -154.29754277
C        0.47476865      10.89072256       4.38051778    -153.81784215
C       12.48293228       9.18764997      11.79835093    -155.80010838
C        1.46556683       9.09694627      11.66070984    -155.95928535
C        2.93268146       9.32300082       3.75377136    -157.42660823
C        8.33627097       9.96011625       5.72637537    -157.30955502
C        2.14602071       5.27299532       6.92705419    -156.78543850
C       10.77175575       9.19269605       9.98983907    -156.17652259
C        3.54329551      10.79527479       8.14132346    -154.99092178
C        5.28088533       8.55866364       8.76871165    -154.45524707
C        7.85214881       0.60750712      11.88239782    -156.67317421
C        0.51010509      11.50484747       9.10965586    -152.88473114
C        6.72063030       9.62421812       3.00539039    -155.08849182
C        6.72614198       1.17591903       9.23778364    -155.22746862
C        2.41229293       7.92192572       6.65767378    -155.94610947
C        6.35552528       9.82375870      12.10720657    -155.81570866
C        4.36142823       2.04238091       4.08378029    -154.21880784
C        1.86906488      12.26564861       6.90792688    -155.81077775
C        5.16404518      12.13400997       4.82625949    -155.01845168
C        6.59988919       0.17450646      11.34008839    -155.98324841
C        2.26793211      11.88846319       8.56238843    -155.48752659
C       10.71383274      12.43588163       3.49445796    -155.20836790
C        0.22254997       9.20358100       6.79242061    -156.39276717
C        6.85257095       4.18544444       5.86723790    -153.67286171
C        9.99113520       4.85692610       4.53703450    -153.49334013
C        8.80882866      12.46111205       7.51482872    -156.68987507
C        2.67692926       4.09297902       3.64696047    -156.66672513
C        2.13195207       9.33413744       4.87206435    -155.28735694
C        1.22062785       6.45078429       6.58597155    -156.75829611
C       10.71656341      10.80425959      10.52262260    -155.17198278
C        1.06027056       5.79826635       3.15591724    -155.18357710
C        2.76154242       1.77714056       1.92702565    -157.13798711
C        8.61092397       7.10162860      12.19363179    -155.57807429
C       11.48198279      11.57145328       5.66145578    -156.31853080
C        8.81352240      12.39921257       5.24207704    -155.46110042
C        8.35449224       4.77822730      10.94693418    -154.73939192
C        8.82741486      11.28256805       8.58208201    -155.07423510
C       11.07245712       6.79328889       2.64786079    -156.12449722
C        6.39248376      12.54149707       5.63939646    -155.65980299
C        3.48602684       0.55839147       1.51096901    -156.89808589
C        5.81437355       6.21334145      12.39382672    -154.76498210
C       10.83843706       3.05119525       1.43541616    -154.44754247
C       11.28397743       0.85415875       9.23897910    -155.64771247
C       11.17940644       0.75613131      10.83943118    -155.86813098
C        7.18826774      10.16474066       8.81523379    -154.89255456
C        9.53384160       6.15467599       4.14781901    -157.33477026
C        7.48729547       8.57820621       6.11516301    -155.69721837
C       11.04974345       3.42650569       6.75805438    -154.85651777
C       11.24097875       9.61961247       3.01850266    -154.96416050
C       10.41260285       3.23596250      10.65003311    -156.12275943
C        5.52820642      11.48563208       6.83896791    -156.19271956
C        6.73458568      12.44194699       1.99918089    -155.58458046
C        3.29153235       8.32899756       7.40723763    -155.91623250
C       12.45061720       4.32888664       7.97427414    -156.74148302
C        0.59109287       0.79326722       6.83078847    -156.93156694
C        2.67351906       1.81318043      10.73979302    -155.51482270
C        7.18269314       7.76148287      12.02382662    -157.07216015
C        5.23328099       3.76224023       0.41256716    -155.05017441
C        6.20105971       7.72042208       1.83975732    -157.74317137
C        5.20995071       0.29263644      10.25643847    -155.35123535
C        0.77942635       1.95487349       4.93587657    -154.75050959
C        4.97483587       7.74021633       2.58169541    -156.55997580
C        9.35047115       0.69524482       8.33010493    -157.03947748
C        2.67087647      10.85600398      12.39411615    -155.06696820
C        4.55663999       1.50849001       1.76784117    -154.85277761
C        2.90886042       7.22815824       8.91453219    -155.76088047
C        0.52756757       7.04142792       5.50008173    -156.46326678
C       10.22314186       7.99942906       8.55551770    -155.41383394
C        9.41179178      10.10983774       8.20207782    -155.68764940
C        5.79465481       8.04997800       6.29275752    -154.51026249
C        9.65036716       9.90200448       5.56513973    -155.93073923
C        7.32978463      12.54791478      10.09951907    -154.97442986
C        4.40578596       2.81790505       9.04184202    -155.53816756
C        2.56459409       0.78275224       5.24779006    -154.36868926
C        3.79868278       1.90263833       9.60920570    -157.32338563
C        7.76841652      11.11806064       5.34770506    -155.50762406
C        8.87885724       1.15728752       0.09280606    -154.03853464
C        4.41212817       2.99495846       5.88647846    -156.08806339
C        5.76004949      10.94896017       8.19081536    -155.73351727
C       11.89355961       8.38934924       9.83025191    -156.52034884
C        0.90107979      10.11063052       7.99905155    -156.75007762
C        4.02344120      10.47805095       9.86444197    -155.75508102
C        1.60059050       0.83263046       0.15235276    -155.09927176
C        4.61545646       5.46395377      10.66860673    -155.05069136
C        0.51515369       3.09676102       7.33198679    -155.97532671
C       10.87677976      11.92554751      11.37693362    -156.34076841
C        5.55951480       2.99914885       8.10452857    -156.35193053
C        6.39239568       4.15807477      12.13292776    -156.47910165
C        5.19768155       5.44443637       2.49001019    -157.75246565
C        9.72390661       1.01694344       9.59012873    -157.06339599
C       10.69440342       5.49450713       5.93953156    -156.04042564
C        5.10207020      10.71847614       1.26291807    -156.36438040
C        7.92619162       4.12409864      12.51371214    -156.87122649
C        2.32253301      10.11925039       8.35378755    -155.94570100
C        7.26676519      10.46998476      11.42847667    -153.87614592
C        7.46323533       2.24073862      10.06730466    -156.08126472
C        9.38182986       2.35543953       9.70832793    -155.50301312
C        0.66308830       2.34473075       0.65310938    -155.34178140
C        2.26604454       7.95159821       2.28094371    -154.36611937
C        4.39072321       5.68742865       7.43962821    -155.77131520
C        1.59360652       8.00825027       9.19780506    -155.53351857
C        1.28896644       8.35246626       5.93282442    -157.43768242
C        6.40740809       4.91993295       3.26849150    -155.42130078
C        9.98811510       9.87637137       9.42160711    -155.71054475
C        6.46572121      10.68505369       2.11184323    -156.23343690
C        0.54997923      11.58109243       7.82489240    -157.78364660
C       11.83369869       3.37682503       2.69150124    -154.52348093
C        8.24418306      11.90986815       2.10246834    -155.47758705
C        7.41209496       7.95289434       4.01245558    -155.90758496
C        0.06223031       7.60752065       2.82014495    -154.43464797
C        0.83149667       6.01503408       0.46624442    -155.07320107
C        9.98094236      11.60028265       0.74964690    -153.94336645
C       12.19251184       2.30984859       5.62739156    -155.70397687
C        9.23945728       4.59296929       1.91425314    -155.66918580
C        4.99805289       2.10292135       6.65708234    -154.60132838
C       10.30893789       5.21427952       1.24043216    -157.54633060
C        5.88377295       7.65409312       0.27294916    -156.12764907
C       11.54444854       8.42176499       2.84524954    -158.02671397
C        7.80494715       9.13728979       1.94261692    -155.84096062
C        4.40630189       6.46962217       2.47869739    -156.43212352
C        1.32397444       2.45291328       7.96467273    -154.86583642
C        9.86828002       7.59347718      11.76801150    -156.46153646
C        7.93072177       7.48703121       5.25162810    -157.99271742
C        1.59968447      11.17977137       1.88493299    -154.13754945
C        3.65487565       5.17446453       2.89148225    -154.11927851
C        0.99058677       3.45140894       0.90651597    -154.73003536
C        1.90387154      10.36804378      11.63954396    -155.52387056
C        9.09671977       0.16819067       3.90750708    -156.17779245
C        0.62398428       8.50831604      10.23197565    -157.08624744
C        2.34051520       3.68768149       5.01577082    -154.55383955
C        8.96929668       7.91691739       8.07135779    -155.19939509
C       11.99380179      12.49109914       6.92597198    -155.34130796
C        3.47905545       5.34090983       6.80323005    -155.71139043
C        9.65451980       2.54646090       7.34610576    -154.55533471
C        8.18044635       4.14676198       1.32251472    -155.71761024
C        4.36692733       9.26487646       0.87574492    -154.37563994
C        3.89335036       8.09126529       3.51707096    -155.14737468
C        4.84478278       8.59727060       7.18679544    -157.62396839
C       10.76283387       6.85255837       4.20910189    -156.99531949
C        9.30929711      10.47329429       0.52461290    -155.80669492
C        2.76049796       2.76339223       3.20829083    -156.10189941
C       10.35855563       2.89894442      12.08216490    -155.06296425
C       12.43510143       8.00002050       8.38183674    -155.36913653
C        0.85924133       1.32014898       8.17701099    -155.24157758
C        6.18721758       6.12452532       1.50164445    -155.32408444
C        5.65122519       5.95731241       9.69184321    -157.21517058
C       11.15496879       4.92238678       7.18570065    -156.52549425
C        1.61722622       6.76077247       2.10546327    -156.65434209
C        2.90079423       0.62089875       9.85252516    -154.77708678
C        4.47393957      11.35535248       3.65967006    -155.77124230
C       10.88887274      10.12550452       5.56183021    -157.63965171
C        8.08048102      12.12525168       6.39651056    -156.83054051
C        3.32530715       8.76398016      11.95261516    -154.92817551
C        3.17517039       9.57959613       0.55413816    -157.45326445
C       10.51572671       6.53897124       1.46340242    -157.96485835
C        9.09716020       1.48156078       7.22406852    -156.40062108
C       12.22449974       6.63434350       0.67691784    -155.20755265
C        2.60355339      11.44986905       5.65624611    -155.10579199
C        3.14649201       9.84333902      10.68913083    -156.64956061
C        7.36532115       6.89514179      10.72467993    -155.26716866
C        7.21865750       3.52859768      10.83347906    -156.33851388
C        5.76671888       4.31319470       5.69959714    -154.96981375
C        5.26236205       4.31791361       1.37683878    -154.89060040
C        5.67119561       5.25900218       7.67333368    -155.33542403
C        1.09156132       5.11511955       7.88106628    -155.48422268
C       12.42821812       7.07534114       7.22932853    -154.77580705
C        2.28538577       2.29742843       0.62822249    -156.80541495
200
Lattice="12.58375331064208 0.0 0.0 0.0 12.58375331064208 0.0 0.0 0.0 12.58375331064208" Properties=species:S:1:pos:R:3:gap17_energy:R:1 anneal_T=3200 density=2.0 run_id=323 time=2 pbc="T T T"
C        2.27044886      11.72662354       3.25716612    -156.21259750
C       11.13161335       9.10130025       5.25414485    -155.53425885
C        0.89230136       4.74811438       4.26292261    -155.99405523
C       11.70422446       5.01550656       2.27335571    -151.93027450
C        0.39676700       3.69163279       1.01432350    -153.88551924
C       12.22730591       8.21345354       4.72850890    -156.41213458
C        6.59465434       3.76556234       0.54264668    -155.59486097
C       12.15732766       9.83674513      12.63635340    -155.46992722
C        6.71421258       1.93095178      10.14450599    -156.54629962
C        1.77636037       3.71763082       6.27544227    -155.66053479
C        2.25100696       8.43446200       8.54887348    -157.11510959
C        8.64831030       0.43942718      10.55131356    -157.36668924
C        6.92007020       8.96367174       3.47871568    -155.09619650
C        6.75989161       4.58136707       6.57443225    -155.50489222