200
Lattice="11.385853889763778 0.0 0.0 0.0 11.385853889763778 0.0 0.0 0.0 11.385853889763778" Properties=species:S:1:pos:R:3:gap17_energy:R:1 anneal_T=4000 density=2.7 run_id=538 time=0 pbc="T T T"
C        2.91375387       3.60768751      10.94634854    -151.89522643
C        5.31246864       0.78727373       0.11969265    -140.79800517
C        9.16982515       8.99013360       2.98696491    -153.72111786
C        1.13892696       5.83798272       7.07285828    -153.90150737
C        1.23908832      10.26318592       7.11550969    -154.65227030
C        4.34520619       5.14385553       3.72844587    -154.50635506
C        7.60190198       9.51036465      11.01506217    -154.50248177
C        1.54028970       7.68805874       5.51453339    -152.60537686
C        3.54676180       9.00153084       6.75783447    -155.01295322
C        9.60342124       4.39218422       0.36064009    -152.83870509
C        2.78107451       1.97141506      10.25531830    -153.35002232
C        4.70801643       0.20935853       5.21275133    -153.27185687
C        4.62647094      11.37649472      11.18813854    -151.10539443
C        7.80708645       9.38551876       8.18062216    -152.45751339
C        6.03474166       2.70042851       0.27040948    -154.39061123
C        5.04705300       8.59061537       5.64598307    -155.10920421
C        5.44661677       9.68010496       1.25522208    -154.75342981
C        1.11954824       9.98122664       2.24937791    -152.56931195
C        8.36273889       5.29320377       5.71990003    -155.25795076
C        3.93742183       1.61179286       0.00967807    -152.78483752
C        2.75618504      10.71118512       6.02452855    -153.91518375
C        4.60590809       6.08581861       8.88669312    -155.15440500
C        2.40280229       8.05316891       1.03791850    -153.61177942
C       10.07284861       5.46318319       7.07272165    -154.00982645
C        3.67692488       4.83447911       2.54246117    -155.97337192
C        5.80934730       5.48908600       4.48313443    -155.17018463
C        7.16744057       7.12786334       3.90140838    -156.55299556
C        2.40276813       2.25988705       4.04742057    -154.45823108
C        0.09428159       9.74044999       2.47881425    -153.21342057
C        4.87358951       1.02406192       7.30873901    -151.17618050
C        2.96406796       0.21023068       3.37436859    -155.42160831
C        5.72627611      10.46389576       3.14800643    -153.98299096
C        4.24328003       7.17381665       2.52664622    -154.10277727
C        1.13031926       2.91562115       7.10411245    -154.96234506
C        6.06747599       4.44960309       2.47842713    -155.48945825
C        5.42344656       0.52587957      10.80165711    -141.01959498
C        1.87946290       6.18580917      10.49021985    -152.81985595
C       10.95894130       9.53906839       7.80625529    -155.32188355
C        4.64066910       8.31908553       2.70283093    -154.78401955
C        0.55442505       8.36683780       3.60842759    -154.18514085
C        6.97940319       2.28959274       9.28254510    -155.05214055
C        3.15721758       0.97827029       9.46219110    -154.03389222
C        8.53982308       7.61794465       9.42363860    -154.12674372
C        9.46266931       7.65110025       6.94944701    -153.95132621
C        5.82995570       3.03399987       5.35869520    -155.33040007
C        1.82823794       1.36524358       7.15079445    -155.97382638
C       10.67456821       0.91313637       5.59384724    -154.66271206
C       10.64291554       6.35028922       6.30322010    -155.75710683
C        6.76413085       3.62062184       4.13371396    -124.91440785
C        3.99520504      10.64740156      10.15947218    -153.24572233
C        4.29103230       8.40128001       0.64730857    -154.72347471
C        9.81361548      10.21660640       4.17085461    -153.99179517
C        1.29808982       6.79477018      11.13944124    -151.20557251
C        4.84275662       2.97518055       8.22813533    -155.76318733
C        8.51409105       8.36068944       7.76632510    -157.83831996
C        1.12996516       4.87673201      10.42624274    -155.03302594
C        9.91892325       6.51591924       8.75230589    -153.72948355
C        0.60936179       9.56326333       0.60243236    -153.15229465
C        8.31704746       0.45507892       8.92998214    -155.32851576
C       10.94030266       6.54103643       2.10547210    -154.57017021
C        3.17171177       3.09516468       7.11861803    -155.54023861
C       10.88406792       7.36830980       1.05758642    -154.26127656
C        8.45185597       7.27791751       4.48986347    -154.95802412
C        3.59188394       1.52804991       3.32597871    -156.67687201
C        1.73945106       2.36297457       9.48135350    -152.98284406
C       10.39669645       2.90492983       0.77667691    -153.19261943
C        7.56021837      10.82406447       9.82492164    -155.02126196
C        3.15849280       8.64920698       7.94247564    -156.68756576
C       10.56092600       5.08505898       3.36894892    -153.07843749
C       11.36768207       2.93999826       4.97379641    -156.73044567
C        6.27646334       1.76780183       5.11742896    -155.62802538
C        3.84180343      11.31222157       4.62525265    -156.17139539
C        3.20130361       8.28788829      10.00405528    -153.98364731
C        2.32241816       8.32917340       3.13789579    -154.12833233
C        4.96690797       2.85718895       2.49708855    -155.17138053
C        0.31593354       7.60523803       8.26939766    -155.30809216
C        7.33646357       0.12181042       5.86409049    -155.04544282
C        1.07688659       2.88194179       1.73867682    -153.52972696
C        9.97600053       9.37405321       5.47772292    -154.44947032
C        6.33890337       6.58713775      10.58046413    -153.36838438
C        9.00909105       0.45857324       0.12316192    -152.87736421
C        1.80228958       1.62372524       1.17236722    -152.78292574
C        9.39602791       9.53244182       7.48451383    -153.99497043
C       10.33023722       3.49440965       4.55618606    -153.32858799
C        8.61810083      10.87212416      10.95319144    -153.74255158
C        9.40761871       1.64051937       6.86606840    -153.42964399
C        8.64270566       0.95458430       2.82673179    -153.73235653
C        3.18866531       1.13022134       7.15926552    -151.72909937
C       11.23375027       4.14511120       9.75087943    -155.42937503
C       10.42608334       6.19369957      10.99626413    -127.62881606
C       11.17760662       4.07566887       6.46806449    -154.32725617
C        6.69446081       0.32653832      10.38769024    -155.03959139
C        0.03230406       0.08573969       2.43448912    -154.56496647
C        5.95946978       7.95423723       7.42521630    -155.36134029
C        7.62360342       7.70561572       8.97064102    -152.54821348
C        9.07448001       2.19555698      11.10703710    -153.88891415
C        2.62714915      10.88344170       0.36803179    -154.76774572
C        2.36015088       9.32502572       3.95804162    -155.66247828
C        5.07662206       7.81274522      11.21640961    -155.36489967
C        8.75403653       1.24105807       9.60083665    -153.95208112
C        0.97362828       6.28162113       8.51807610    -155.72276458
C        4.33364955       3.50422425       1.45520321    -154.08561730
C        1.48617274      10.27524354       9.17852394    -154.16822733
C        5.82086979      10.24980755       9.10497132    -154.73446413
C        0.60625687       6.39307726       5.77357295    -153.19505860
C        9.99718961      11.18525792       4.42922241    -153.39470712
C        8.16278053       4.69738204       7.58679295    -154.21363840
C        0.85732861       4.14927842       8.97168852    -154.07033669
C        7.59774614       0.56632782       7.60332521    -154.68181800
C       11.10695740       1.27345083       1.33257757    -154.63139336
C        2.55719447      10.07715246       5.03870717    -155.22428488
C        7.72170393       6.16030486       1.38602277    -154.16837510
C        7.18405253       0.70304460       0.39827489    -152.54862981
C        4.79199848       1.52500988       9.28771428    -152.49158476
C        9.30973452       3.22014720       0.46098134    -153.20568440
C        4.53005553      10.61354003       8.00948139    -154.74834538
C        1.25193156       0.85858333       8.37799594    -154.62024878
C        1.80507912       5.08525254       9.16471290    -155.78259653
C       11.01334291       8.75220341       8.83592360    -155.19105022
C        0.10659960       1.51603783       4.16313500    -154.75209365
C        0.13879470       4.32109095       1.33635767    -154.01028830
C        9.56686126      11.27161962      10.85030887    -148.99676662
C       10.16533590       1.88764933      10.23176097    -153.68608674
C        6.71837110       3.44627026       2.22577503    -154.02544647
C       10.58799018       7.51982136       5.41713879    -153.00975023
C        9.98244493       7.89991532       8.47346632    -157.39047406
C        8.99516615       2.87344795      10.23457327    -151.40302037
C        4.35670590       1.53113547       8.19869151    -153.69274526
C        9.14293176       5.56927657       4.85372120    -154.81446150
C        5.79874707       8.01256696       4.18687451    -155.28612441
C        3.89467934       6.85919134       9.30018179    -154.11611680
C        3.75213983       3.90091879       8.03993855    -154.72984812
C        8.99201227       2.87835525       1.39514283    -149.73905231
C       11.05762249       7.08476788       3.55932040    -154.45167839
C        6.02307116       6.79316478       2.80819562    -154.92097776
C        8.56357397       7.29504183       0.70054540    -155.15989990
C        9.92274889       6.05529313      10.92119719    -125.32933983
C        7.20642573       1.41117412      10.72090864    -153.69613469
C        9.83800398       2.51968947       2.67698504    -154.78970844
C        5.43913626       0.87065803       5.84621470    -156.38880286
C        1.53661207       2.73785381       0.38292562    -154.69644038
C        3.20023334       9.96856557       2.37449706    -153.53742355
C        3.07843886       3.58986864       2.63596181    -156.59645447
C        2.47470396       2.18816756      11.18087436    -152.79696874
C        3.18405404       5.62794788       8.60456304    -155.16142037
C       10.09147586       3.02798814       8.84095614    -153.78621789
C        2.45757963       0.44425666       5.01273603    -154.34581455
C       10.83553003       2.63326336       6.09893511    -155.81230021
C        1.04225082      11.16832715       0.66761524    -155.17888665
C       11.15702100       1.87175468       2.41123921    -156.01571739
C        6.78391946      10.21479605       2.20243403    -156.11846155
C        1.80284749       3.94335386       3.36480447    -154.09278286
C        4.42373443       1.91886934       1.94244945    -155.65496222
C        6.26415523       5.43654029       1.54698458    -155.60727102
C        9.33892785       7.58355937       1.35425623    -153.13876618
C        0.55683543       6.56303390       0.49113792    -154.30817973
C        5.54480837       3.81141459      10.64401997    -148.12649023
C        4.12282908       7.19434534       5.09019400    -154.94293485
C        7.19383298       9.21643883       5.49341263    -152.16542969
C        0.01762234       3.35788187       0.06293770    -152.69125382
C        4.42209486       5.93725598       6.05320952    -153.69980627
C        5.23757249       4.88472488      10.50666102    -151.98317802
C        1.50331983       3.71271062       0.84427131    -150.90429112
C        7.83656443      10.90456246       3.68157031    -154.25832010
C        7.51580215       2.59705634       7.60877904    -153.94187162
C        6.88073338       8.80596741       8.40182653    -155.19091536
C       11.04543963       2.71168912      10.71513601    -151.83461149
C        2.84128291      10.76933267      10.29005654    -152.75620384
C        6.27977663       7.81602435       0.94466950    -155.26780605
C        2.81650729       7.52179111       6.88938663    -154.52421513
C        0.15915944       7.82279893       2.19625151    -154.97128762
C        5.55458882       0.83069596       2.16085289    -154.08063768
C        6.06667898       4.16935168      11.17099144    -147.18468515
C        8.70949507       0.61631513       4.95518054    -155.13250652
C       11.28085355       5.29142758      10.29580640    -155.62813090
C       10.29335844       9.56402618       0.17837648    -153.41259980
C        2.09603323       3.69299032       7.54517766    -154.58167584
C        3.24017491      11.19715613       9.38869542    -152.57458453
C        8.12097167       1.26142737       0.57257068    -153.46710234
C        3.89905151       1.97657285       7.25059146    -153.84728367
C        3.43601160       3.15414340       8.96710002    -153.89043303
C        5.87141159       2.96410211       9.15789277    -156.13935823
C       10.57020547       5.17317410       0.52687014    -155.25489661
C        7.23265874       3.55649671       4.27566140    -122.06079881
C       11.08618960       9.87432486       1.27143553    -156.35616654
C        1.91816342       8.46939019       8.38810658    -154.64785536
C        7.32413269       8.91298306       1.32081598    -155.38770192
C        0.36836425       5.98493994       1.47619873    -152.01496409
C        8.95648840       3.90653201       7.00169669    -154.68215853
C        0.66631725       0.17403278       7.67961043    -155.34822395
C        1.21670373       7.17283746       4.63266484    -153.78247708
C        5.39809026       7.05054201       8.21016845    -155.92981366
C        9.38560985       7.45117605      10.65451772    -155.16547852
C        8.96568817       9.81872773       2.28469683    -153.85677684
C        5.38637421       9.89628817      11.31143595    -148.54372092
C        6.53183666       4.00827600       5.57257847    -154.07047763
C        5.90949727       9.77920743      10.69461870    -146.16024754
C        0.35850980       6.98186253       6.56350072    -152.43347902
C       11.35653532       1.28196745       8.13006897    -152.64538262
C        7.89719410       3.57586404       0.54922399    -151.68262306
200
Lattice="11.385853889763778 0.0 0.0 0.0 11.385853889763778 0.0 0.0 0.0 11.385853889763778" Properties=species:S:1:pos:R:3:gap17_energy:R:1 anneal_T=4000 density=2.7 run_id=538 time=1 pbc="T T T"
C        4.25974397       4.71078319       9.78216776    -155.43336402
C        9.47426011       3.80311430       8.98167391    -157.20016091
C        6.80329819      10.92818811       7.76914879    -155.96999460
C        5.16891579       5.94817502       5.06963115    -155.37784481
C        1.28594111       9.41490565       9.04677822    -155.71233491
C        1.42236641      10.37160203       3.67324725    -155.15346721
C        3.41395720       2.17603024      10.39095798    -156.17586627
C       11.46999535       7.93575799       2.11738170    -156.74532284
C        3.47908429      10.47881123       4.46821896    -154.92814200
C        5.06697824       9.52185298       9.18222434    -156.35323063
C        5.46478859       7.71073936       3.56674398    -156.35244527
C        3.66270395       2.13344714       0.62752678    -155.74180784
C       10.00543296       3.74493259       2.58786796    -155.35721210
C       10.04647897       7.85766242       1.94528452    -156.37044219
C        9.17941204       5.05981654      11.16006102    -155.59515984
C        5.39896697      10.56904412       8.41049117    -157.26378871
C        2.63201091       1.87174329       1.83738079    -156.73156892
C        6.98598421       1.98927946       5.06341447    -156.56263285
C        8.14731854      10.79599834       8.44061813    -156.69190004
C       11.34483066       5.01105093       9.25154142    -154.06852583
C        7.29448392       9.23211715      10.55373014    -156.63294632
C        6.27541584      11.08451588       5.18174765    -157.09796453
C        9.33515913       7.48441135       9.62924435    -155.62116267
C        2.69767313       6.77588105       7.39291463    -157.16824188
C        1.35468890       7.11687599      10.09963952    -154.62730341
C        4.61649693       3.72204702       7.31619675    -156.49560376
C        5.49367450       6.40035282       0.83055136    -154.78604917
C        8.69320192       6.19643218       9.71735947    -156.01265774
C        1.42115951       7.15121573       2.87737607    -155.82737726
C        4.27307681       0.02557206       2.96782529    -156.31843416
C        2.29553616       0.71071525       3.69854662    -155.69690357
C        1.95000965       9.76454245      10.25037684    -156.24358143
C        1.99432340       4.08729383       3.25363299    -154.99759589
C       10.81481916       0.71251307       8.42110278    -157.03922095
C        0.18279647       7.28111693       8.62246161    -154.14958978
C        2.83865278       0.00600827       9.33078696    -154.81510615
C        4.05996778       2.41664749       6.59822757    -154.74194782
C        6.12314143       6.95038065       4.90370510    -156.75090508
C       10.97953831       2.93009257       4.56425863    -156.36230292
C        2.22981701       4.37909049       6.78822332    -155.75909206
C        2.92116606       0.55805600       2.18831557    -156.03934899
C        2.56516457       9.50127874       1.19140437    -155.71308629
C        8.38700215       5.70260492       6.13829601    -157.23347006
C        4.86995743       2.61084461       3.65947037    -154.85749963
C        7.01622504       1.89789660       2.82185864    -155.71840834
C        5.14826185       4.88182149       4.08103161    -156.18583617
C        8.10876604       1.75174778       0.68068961    -156.25279197
C        5.76043367       3.87514121       7.21604678    -156.78320904
C        6.64873522       8.35437029       2.90654662    -156.14577103
C        1.69917929       0.36723705       6.42074488    -154.87696635
C        6.96906483       2.42752098       0.02575230    -155.20608586
C       10.99256372       1.91193536       8.00566713    -156.21308819
C        9.68603699       8.53953843       9.00251002    -157.01805056
C        6.03526541       7.29023700       6.27741975    -155.92160124
C        8.63848150       6.91709980       7.29360721    -155.29332065
C        7.67463481       7.49321262       4.11886680    -155.49978401
C        6.77047277       4.12984277       4.33074616    -155.95735399
C       10.86053336       3.70656226       9.31104389    -156.30872537
C        6.97200239       0.34896845      10.88713072    -156.30607516
C        3.18099125       5.75503678       5.06515650    -154.90228871
C        9.85027793      10.14849622       0.86176909    -156.90894281
C       10.84231600       3.85652534      11.00060214    -154.71712352
C        1.99197791       5.03130636       1.16471592    -155.73516884
C        8.71936661      10.88097097       1.23407855    -157.71319901
C        0.14966591       8.18062216      11.09971600    -154.02959034
C        7.14088876       0.06453468       6.24383149    -157.05936098
C        8.27702619       8.56111463       7.58371877    -155.40781611
C        7.78249301       8.73297271       5.32384311    -155.34265088
C        3.78094604       4.67561229       8.00850221    -156.78814517
C        0.00482276       0.13756958       7.17993085    -155.94047274
C        7.53163988       2.91360585       4.51430889    -155.65555337
C       10.65908345      10.28924814       6.94351498    -155.98064438
C        6.25513764       8.66847184       1.52240252    -154.93232208
C       11.01632600       0.48569548       3.87485657    -156.80495013
C        0.68101069       2.62314133       6.89778939    -155.41813803
C        7.48644942       4.98308727       5.15675570    -155.46330296
C        1.04595236       4.59889440       4.71066933    -156.00749961
C        2.04670971       8.10119444       4.13583172    -154.64080546
C        4.52552396       5.78831763       8.05655051    -153.88363005
C        4.65292028       9.35846597       5.85764609    -157.18355029
C        3.98701861       7.52262228       3.05269544    -156.35500905
C        8.21735293       4.46808233       6.27378767    -154.45536893
C       11.28753704       2.14088211       3.60188072    -155.98342745
C        2.37237929       1.92582610       7.22143229    -155.70371723
C        8.68789611       3.03360137       0.73157185    -155.45548270
C        3.19715916       0.76508270      10.18487402    -156.35575193
C        5.90464690       2.56888774       7.26108922    -154.93189125
C        0.87475352       6.83266231       1.85091857    -155.85220401
C       11.10021697       4.19646140       4.07908463    -156.49978235
C        8.85624735       0.18556551       2.40377009    -155.85681737
C        6.39499008       7.79152199      10.33274211    -156.65482312
C       10.34969564       1.45299436       5.33008255    -154.44083724
C        5.36671085       8.73175442       7.05135040    -156.03409483
C       -0.12753978       9.83066011       0.49212393    -154.69772489
C        2.90783322       5.76871119      10.17799697    -156.31597233
C       10.19858259       8.41679893       4.17991775    -156.03513109
C        3.49037905       0.83602795       5.25180481    -153.11184722
C        7.95999847       0.41361733       0.65111827    -156.90584743
C        5.56474500       6.04506863       2.93619539    -155.32836180
C        4.66520562      10.02752152       1.42714847    -155.04901207
C        5.67532441      10.98988805      11.11143204    -155.34384239
C       11.00127390      10.29280053       1.81426750    -156.99378136
C        0.75797223      11.45883721       3.82251580    -155.48590787
C        6.46310026       5.47423885       2.45113524    -155.08180315
C        7.31674327       0.39088320       9.20848012    -154.51535803
C        0.00416237       5.51558088       3.80093960    -155.04034978
C        6.51695535       5.52782068       7.90321722    -154.76981311
C        9.79661640       5.23728784       9.36228024    -156.88240761
C        4.79392269       6.93176478      11.05197511    -156.40513624
C       11.18395993       3.84677905       1.69212006    -155.20410088
C        3.22851580       5.79265564       1.31455376    -154.15932614
C        0.90776453       7.03610474       0.31239253    -158.03176357
C        1.61207751       2.18949970       1.35015733    -155.69167855
C        2.02886808      10.01293624       2.26041080    -155.69888309
C        3.21431764       8.68997972       5.72798399    -155.69442552
C        4.34752891      10.21754004      -0.03085327    -157.13815340
C        1.77989361       5.90983885       7.89536098    -155.31590519
C        1.84718401       5.45291314       5.63099929    -156.11695997
C        2.66035030       6.82168634       3.51497250    -156.57178573
C        3.03781413       7.32326736       6.04087864    -156.23373868
C        7.53782239       0.46635888       2.71692661    -157.18090571
C        8.01125758       7.53076316       0.85890327    -154.91695579
C        5.26216593       7.48642665       7.37007461    -155.51291828
C        9.23538489       9.85884010       4.34312258    -154.59716610
C        8.97008311       7.67146955       3.19895812    -155.75839475
C        7.97169174       2.32899918       7.19608738    -154.26190417
C        9.24286540       8.63508852       0.96003471    -157.33137531
C        9.75213187      11.22030357       6.14282758    -154.51508648
C        2.20390281       2.72559125       8.49328909    -156.98434556
C        8.87399789       3.71409970       1.64147578    -156.95485669
C        7.75610060       3.09401471       2.51590936    -154.91750086
C        0.73663173       5.80746864      10.98551588    -155.69134304
C        8.24087610       8.41561480      10.92233578    -156.11483797
C       11.53386999       2.03033685       0.79584158    -155.01713826
C        4.84974754       1.65549177       7.96730819    -155.05276536
C        0.15878484       2.73458607       2.20442656    -157.26145372
C       10.04498742       9.67756592       5.65822286    -157.05299205
C        4.19844254       0.86685857       4.22639481    -156.93876466
C        9.58275591      11.31280225       8.30899766    -155.17032342
C        5.66874339       1.46778458       4.29253523    -155.73547326
C        4.48920309      -0.00402759       8.22187311    -154.95594474
C        7.87664263       0.88200176       5.51223344    -154.79435728
C        6.90755845       5.54908945       9.56358213    -155.88061017
C        1.82885278       9.72587609       0.13076653    -156.50038023
C        6.97147864       8.72501399       6.83986955    -156.43325765
C        8.26865758       9.47791497       1.94424841    -154.66808445
C        4.94535455      10.59318213       5.68513902    -155.77153232
C       11.15194291       6.38278445       4.99616962    -157.34351564
C        9.28285252       9.81039329       9.28944493    -155.17195176
C        7.89092049       3.69794317       9.66857109    -154.18411240
C        2.86954260       4.98046852       3.09179447    -155.36782765
C        9.64954533       6.20671360       2.51186738    -154.70064712
C        9.71214475       7.33547300       6.53450095    -156.35452351
C        4.83430832       3.25719677      10.24579973    -157.35217327
C        3.91718917       6.67421676       9.99643814    -155.72521368
C        2.21864749       5.31490521       9.07509484    -156.19269628
C        7.09954672      11.18881030       3.76374202    -155.21458177
C        4.84276801       3.36210602       0.34777749    -157.58726102
C        5.82998985       9.89303181       3.12449464    -156.15511835
C        3.09196525       9.42572221       3.42509257    -155.38953646
C        9.99780444       2.84094133      11.21528241    -156.65084214
C        2.12250534      10.46539869       5.64371728    -155.83552831
C        6.91848887       4.38277951       7.08323079    -156.98303592
C        7.73033441       5.48028474       3.07235881    -155.28851358
C        1.01028503       2.72965600       9.02867472    -154.21269903
C       11.08855786       9.19690071       2.83150246    -155.72118768
C        8.92325310       5.97832476       0.76891518    -156.52335228
C        3.92797158       3.65689717       4.15288773    -156.82177684
C        8.35574798       5.15431913       1.74244554    -156.80377778
C        2.87694340       8.03117144       8.07660100    -157.25533960
C        6.31114465       9.30508909       0.19117532    -156.11353932
C        6.26273200       4.21286841       0.80706917    -153.65574343
C        2.40526163       3.97216007       8.01402435    -157.06028932
C       11.16397776       7.76345586       4.81254995    -155.95963712
C        6.69163712       9.80106827       4.34357801    -155.83772823
C        4.13575202       8.08485574       8.38659226    -155.07902554
C        9.80139846       6.04156179       5.48088819    -155.63793594
C        2.73159159       3.51501804       4.86345610    -155.05898994
C       10.20602894      10.98881778       3.04802724    -156.19007914
C        0.19596193       1.50115652       5.70887853    -155.07068747
C        8.60732981       2.48678435       9.60879536    -155.46995602
C       10.91986505       0.72731127      10.83254693    -154.25616010
C        1.03323094       4.64068049       0.62160045    -155.57961426
C        3.85817629       9.40544401      10.48938868    -155.15305986
C        0.61607945       8.64689565       6.95619882    -155.37550205
C        5.45463241      10.74979455       2.29743760    -156.44964937
C        6.49389899       8.84857328       9.46135994    -155.85119162
C        1.86321529       3.18965588       6.23556536    -156.48707699
C       11.14964296      10.71080938       9.29305424    -154.13867836
C        1.87103737       8.82162296       7.89209324    -156.87511376
C        7.37975258       1.11287272       7.31694821    -156.81757424
C        4.43072534       7.54112429       1.51316860    -154.75761297
C        6.09993706       2.50994317       9.72481721    -154.84289003
C        9.93127690       1.73938274      10.35319110    -156.35084178
C       10.60632140       7.77028737       7.72207967    -157.22256632
C        5.76666173       3.04690004       1.21142070    -155.11771819
C        9.65921192       2.38147659       8.04339985    -155.02335439
C        6.60971590       6.40483885      10.68911933    -156.18416309
C       11.33321709       9.16336937       5.52223022    -157.95156004
C        1.04580320       9.91898018       5.21764725    -156.14441848
200
Lattice="11.385853889763778 0.0 0.0 0.0 11.385853889763778 0.0 0.0 0.0 11.385853889763778" Properties=species:S:1:pos:R:3:gap17_energy:R:1 anneal_T=4000 density=2.7 run_id=538 time=2 pbc="T T T"
C        8.20793682      10.03787126       9.33712888    -155.37689676
C        7.58227277       8.76282641       7.08005414    -154.59179437
C        4.76490015       2.32217906       4.99903885    -156.40189415
C        9.50811025      11.22131692       9.82880421    -154.71162147
C        7.61969807       5.26181297      10.53867805    -156.37922493
C        0.88392938       5.93810992       1.07900891    -157.45201676
C        5.76750429       0.94299122       8.75732705    -156.44067501
C       11.11766010      10.03614061       9.76448552    -155.37735082
C        7.65724862       5.93133534       4.32832097    -155.58097724
C        5.05239296       9.60659789       4.77488555    -155.76472393
C        1.22671190       4.10900665       5.09575029    -157.27919956
C        7.14417927       0.15647010       6.41562125    -154.95583306
C        4.25201298       1.73101414       0.34675846    -155.48235418
C        1.10287935       0.02701021       6.50922435    -155.57985182