200
Lattice="12.38075404960777 0.0 0.0 0.0 12.38075404960777 0.0 0.0 0.0 12.38075404960777" Properties=species:S:1:pos:R:3:gap17_energy:R:1 anneal_T=2700 density=2.1 run_id=194 time=0 pbc="T T T"
C        3.38736193       7.92882060       0.02554694    -151.27792122
C        3.13266505      11.91328154       3.15595325    -156.18544980
C        1.40007757      10.64576470       1.76896214    -154.00449200
C        7.22454141       2.79432381       7.29778595    -154.41360289
C        0.56766376       6.05961150      10.14606509    -154.15252422
C        7.64486801       4.72314624       0.81028073    -156.30000825
C        9.88457118       7.91559796       5.27048700    -154.90195051
C        7.45307775       9.72406708       6.78579225    -153.49902998
C        5.89403130       7.25426760       7.33830816    -154.09553029
C        7.19040767       3.82242162       1.92749769    -153.97314118
C        0.92755990       0.60195102       1.42698095    -154.73260436
C        8.25215638       7.88394037       0.98821569    -153.62125509
C        4.55788794       3.33468182      11.26402242    -155.41225758
C        5.15320412       9.38135543       3.65179007    -156.39114787
C        7.09293400       4.12745864       7.39113684    -155.86038871
C        1.18498673      12.28748983       9.51668945    -155.07413269
C        0.20583251       1.79806929       6.69424895    -151.81312383
C        5.11291714       3.76352638       3.20465914    -152.64734849
C        0.39434683      11.77516185       8.83964792    -156.73931545
C        8.16074927       9.73574214      10.13248340    -154.87972013
C        5.47119140       3.89772137      11.56033100    -153.41305983
C        1.85126939       7.87548432       7.97065517    -141.82695077
C        0.79194608      11.92901748       3.10155222    -154.28117927
C       10.58199144       6.24053146       6.36484661    -153.09595919
C        2.08280187       7.50594357      10.42491681    -153.08460920
C        1.27951379       6.18643995       0.05912367    -152.61085490
C       10.93062109      10.19297576       7.77328119    -157.33960752
C        8.08064579       1.17697143       2.53351084    -154.17046370
C        7.28724993       9.20203259       2.05624516    -156.39457222
C       10.43719852      11.69634597       1.88432600    -155.58883366
C       11.67751484       9.49496123      10.44198987    -153.21112083
C        9.05000931       2.79379144       5.80865362    -154.52201163
C        2.20766178       8.21661123       7.41711166    -144.39430664
C        1.83753914       2.33657019       2.64992707    -155.24586393
C       11.16722968       1.81742041      11.79722435    -154.89180580
C        0.25887414       2.54183071       8.03803124    -154.72817866
C        9.53259872       2.57826727       9.35107211    -151.26607701
C        4.19758323      10.54746151       2.89138892    -155.55638603
C       10.66630437       3.75409224       5.08455283    -156.50819845
C        7.65354692       5.07196161      11.42024277    -154.75840477
C        8.55221633       8.80794081       3.05654818    -152.44084465
C        0.95641077       2.16171680       0.99735764    -154.24592525
C        5.52952952       8.55081731       0.86129316    -153.07793237
C        0.27300553      10.04925997       4.29393026    -154.06540937
C        3.64935106      10.60723579       4.62858204    -154.88778818
C        1.75136909       5.37375487       8.80791605    -154.22518216
C        8.34171875      10.67056335       9.16786171    -154.43729342
C        1.10322299       1.77211923       7.52468803    -153.10163272
C        2.07922384       4.98204019       2.25385437    -155.42519945
C        6.38267490      12.17405736      11.27179753    -154.82560753
C        6.24221524       7.85000472       0.25289052    -150.72685100
C        2.34976807       3.08898575      10.83670069    -156.71332542
C        9.55258126       2.08481994       1.23528231    -154.68205458
C        4.74570398       4.07997845       5.60744160    -153.61779048
C        9.21638188       2.92792453       2.53448892    -154.33773432
C        2.66093356       0.63006153      11.44485571    -155.93637432
C        5.33725641      10.07106248       8.20817994    -152.86471271
C        4.02617169       5.55136917      10.74559072    -154.99415751
C        8.57469978       6.56006634      10.34774757    -153.92109530
C       11.24239324       2.38648939       2.27975491    -153.83245562
C        3.84636600       5.88489430       4.48484149    -152.57968816
C        5.36805972       4.81376098       7.72889619    -155.54015685
C        1.37293896       8.66781543       4.98901056    -154.10930739
C        3.81301225       2.49947615       2.90758295    -155.52282232
C        5.43814717       6.71993902       8.86988172    -155.10903810
C       11.39104895       5.30176078       0.32777923    -154.35216304
C       10.91190139       6.11764009       3.52281976    -154.81328627
C        9.72378233       4.59640446       9.39908467    -154.27238570
C        4.60707667       8.37420585       6.24558281    -154.05499138
C        7.37245428       5.82500859       6.91039216    -153.94938184
C        0.56233261       4.06260825       4.66941377    -153.35276487
C       11.26766236       4.64658366       5.78090835    -154.56396549
C        1.68072450       3.41157868       9.51889323    -154.64991221
C        1.29024790       0.45919226      10.87997142    -155.83718151
C        1.41290403      11.45864787       4.23309124    -155.88721343
C        6.77014298       5.87517541      11.19091406    -153.65326132
C        5.80896313       1.61837503       5.12103892    -154.17085111
C        9.66721466      12.35700776       7.90714190    -155.24689141
C        8.81419309       6.22189842       5.24154080    -151.92680410
C        6.67950348       5.49538340       1.59143451    -155.56691104
C        9.77378819       6.81710318       7.22637376    -153.77883521
C       10.41989022       8.81503498       8.03795695    -156.39685314
C        2.59131658       1.04127837       3.28782066    -156.91918773
C        1.22054054       2.72072023      11.09100138    -153.14125614
C        2.87065116       2.63857392       6.35085636    -155.02339304
C        9.00876902       2.15110649      11.33553365    -151.96390122
C        6.67992442       4.70624651       8.74919413    -154.61383373
C        4.15734578       2.66248116      12.25102851    -154.26723838
C       11.73460250       4.50273168      11.08676716    -155.12863875
C        7.24629440       0.72818767       6.17119924    -154.12912880
C        5.80231467       2.35257850       0.98572592    -153.37479016
C        2.59791553       7.86382165       2.45894156    -151.58400066
C       10.51736390      10.66463297       8.94690239    -154.30163437
C        3.90030895       8.01660015       8.33263128    -154.19846940
C        1.09586759       6.06430381       2.17628895    -154.36423032
C       10.09671540       5.30649023       2.15447406    -155.07767695
C        4.67894695       1.21004290       8.02544001    -153.73648695
C        6.38590627       5.16918767      11.99722305    -155.22952830
C       12.15743001      12.33906805      12.26672730    -154.21020528
C       12.35308306       3.68010486       0.86768534    -153.52029982
C        9.90565560       5.58284104      11.41501809    -154.59405052
C       11.20594430       8.11792424       9.04250657    -153.88124759
C        4.22985986       5.66483878      12.37226085    -154.59111934
C        6.98950518      10.99372579      10.75140967    -155.17501123
C        9.53516154       1.78893229       7.84088011    -154.26064900
C        1.06694491       6.77923045       6.35899051    -153.44990659
C        1.39423386       5.08774707       6.87940313    -154.14737459
C       11.74874132       2.91832944      11.03055854    -155.44544064
C        1.24880952      11.23502669      12.34180420    -154.60848096
C        7.68702448       2.70049007       0.24067072    -153.79624779
C        4.46256851       7.39019590      11.86269378    -155.44284396
C        6.93932598       6.04716884       3.85545348    -152.80319501
C        3.01898497       3.22221505      11.75527836    -155.63360604
C        9.21042674       7.89884680       9.17797678    -153.54771819
C        8.60019175       7.79034187       7.23304699    -151.80507179
C        1.71047546      10.03161740      10.83441025    -153.46280949
C       11.43656060      12.30903234       9.51812562    -155.12276122
C        4.63786761      10.09109454       5.18348744    -155.23093737
C        0.04159191       2.13714100       1.83829436    -157.00737061
C        3.43403737      11.72240745       7.82532988    -146.02839851
C        1.79891118       2.66317448       7.31199906    -154.22927892
C       10.42011308       0.43886678       2.52613191    -154.59671009
C        6.80147866       1.40642890       3.13299934    -154.82885820
C        1.54063627       1.89198969       5.09372697    -155.13533263
C        0.15914345       3.08330299       9.51975988    -153.12389973
C       11.31499398       7.14493316      12.36619428    -154.14966087
C       11.53790946      12.32500351       1.53407447    -155.89146930
C        5.53841890       2.89837167       3.73179450    -154.18383633
C        9.60659849       9.62389440       0.11994462    -152.70399432
C        6.00119910       7.87565765      11.71702183    -148.81862963
C       11.68443568      10.20237276       0.60104351    -154.36867546
C        9.13318322      11.86266902       6.24607804    -154.34009981
C        9.95973474       4.62299832       7.38953972    -154.22323366
C        5.05015910       7.58958794       2.37077821    -154.11107336
C        2.95695739       2.87960244       5.17402854    -153.50264198
C       11.14245579       9.74089253       2.10032064    -154.01930356
C        1.94990686       0.33675899       4.78862805    -155.52384756
C        5.03194701      10.70920368      11.84673499    -151.78090552
C        3.34181313       6.94118309       5.25826719    -157.60521233
C       10.15869346       7.22051767       8.69588260    -155.94586635
C        3.53265008      12.08039696      11.75374314    -156.27431503
C        7.99899472       0.76946139       5.36578166    -154.16282035
C        2.29415373       6.47544389       6.44574246    -156.43429191
C        6.77046488       2.63797965       8.36495743    -153.22582969
C       11.05670669       5.18663215      10.23607317    -156.63473459
C        4.42931381       6.34412123      10.08990599    -155.32634555
C        6.49087031       9.30262622       3.53253865    -155.67812127
C        7.06047166       6.87391846       2.27153409    -155.56349213
C        9.05493685       9.96341182       5.61827476    -153.83357767
C        9.84221662       1.62520920      11.53654757    -154.83392944
C        4.24880241      10.68932019      11.15265753    -152.61103797
C        9.02410877       6.73203501       6.55598069    -154.80878166
C        3.97840674       2.82559759       4.96330811    -153.43827254
C        6.82060693       3.31456309       5.14039004    -154.10372256
C        9.74224203       3.96805643      11.47829613    -153.30642983
C        6.86401385       9.43103940       0.92946530    -154.67808294
C        7.24220875      10.52011243       4.92101545    -153.08700467
C        4.63904378       3.11972717       6.56574911    -154.32277918
C       12.00145727       3.10952543       8.56686276    -151.35792552
C        9.70298266       4.33292964       3.92672948    -155.18694447
C       11.09756318       8.27887404       6.19430172    -154.59811256
C       10.49268906       0.02733757      10.62167175    -156.35404389
C       10.29858360       7.25019433       2.43623526    -153.37745681
C       10.26688886       7.94610414      11.07418831    -154.27733358
C       10.02633081       5.86203943       0.17940579    -153.79563018
C        4.44532212       4.13510995       7.99144246    -152.14346814
C        8.79557243       3.59329101      11.76614866    -153.58335968
C        4.01015100      10.47699026      12.32835870    -152.31582308
C       11.63034417      10.41724074       6.43464930    -155.08172028
C        5.54063505       3.85786772       6.77152962    -157.07757701
C        0.81930507      11.16251261       8.01723157    -153.84507688
C        8.80569989       4.77915677       7.93595192    -155.35126278
C        9.90602703      12.37533128      11.70469059    -154.05603741
C        2.63849964       9.23678537       6.05694964    -155.37019652
C       10.01091677       1.96722753       5.48121981    -154.99793560
C       11.81588215       6.45257663      10.18377686    -155.52515325
C       10.35198179       2.81865199       8.62735513    -154.40160948
C        6.55762733       0.39902304       8.33899499    -153.59331800
C        3.61307545      11.48563791       2.10886336    -153.36374938
C       11.52310207       3.12241379       7.52822893    -150.90183672
C        6.28494122      11.96143029       2.25499340    -151.89608392
C        3.07459932       0.39747420       4.34555801    -153.01371653
C        7.38680357       6.31038367       9.27486857    -155.13119292
C        5.13795103       7.36954480       0.39974360    -153.51484133
C        4.74676872       2.06379742       9.62742292    -153.53569367
C        3.67392686       2.17339185       9.62143063    -154.40800243
C        3.71511763       0.52509873       9.83694242    -155.35240064
C        1.56167117       0.50894061       2.87004450    -156.31078782
C       10.83597022       4.65679778       3.05449297    -156.18600731
C        4.79449653       9.67898876       7.24298873    -156.47974331
C        9.88132742       4.57987616       0.15714272    -154.68923476
C        7.08317796       8.02706189      11.72376934    -149.12477613
C        8.66229362       5.76340196       8.50658087    -154.18370237
C        1.30686287       4.15002876       6.51976699    -153.63017258
C        4.46764462       7.47610595       5.59866365    -154.80864326
C        2.86923975       3.61509352       2.60982581    -155.97717082
C        2.89977069      12.30393147       8.01172213    -147.73292678
C       10.94331136       3.33932460       9.40188272    -153.57131427
C        0.80987836      10.62705738       6.43214839    -155.31253335
C        3.94506537       1.37108185       2.85132480    -153.07238587
200
Lattice="12.38075404960777 0.0 0.0 0.0 12.38075404960777 0.0 0.0 0.0 12.38075404960777" Properties=species:S:1:pos:R:3:gap17_energy:R:1 anneal_T=2700 density=2.1 run_id=194 time=1 pbc="T T T"
C       11.67363966       3.18062810       4.62421164    -155.67372842
C        2.53572700      11.99203551       4.20303077    -156.30402554
C        1.65128307       1.31691605       8.45033511    -156.79761596
C        7.83033171       2.98408363       2.54190499    -156.18883705
C        3.27933985       7.90860283       2.76368144    -155.33451912
C        5.72305308       3.26172204       7.74516450    -154.87944476
C       11.54795025       9.97782302       7.40913845    -154.22491832
C        9.30828422       9.93905888       8.37541916    -154.15000860
C        9.83356247       4.91710314       9.88443499    -154.71880683
C        1.49456749      10.44602600       4.94630933    -156.02274770
C        4.78033295       6.30600089       3.26590673    -155.57393498
C        5.02978038       7.42961622       3.78291464    -155.50222455
C       10.89233980       9.43731644       2.69365590    -155.27901062
C        5.50802415       1.46003756       2.77871168    -155.78641853
C        7.90372482       6.61612640       2.93572440    -156.63383626
C        2.83744597       6.66489419       9.55769451    -154.55879215
C        2.46904426      10.41612647       3.80074292    -155.94309965
C        4.88564364       0.20806724      11.99588593    -157.40510144
C       11.45483460       6.50463770       4.22546469    -155.10376787
C        0.45048859       3.58918060       5.87809727    -154.89537528
C        9.19290797       1.14121458      11.90632355    -154.66054078
C        1.68008071       7.57604340       1.24328770    -156.11878295
C        4.98289446      10.33456207      10.40624663    -156.76023338
C        3.07736023       4.60894617       5.43710719    -156.57870563
C        4.75990470       1.44863489       1.75838897    -155.75986062
C        5.51172599      12.33549001       8.38919894    -157.10255536
C        6.05220781       6.42574754       9.63252379    -155.34330493
C       10.48064258       5.71113042       6.61415786    -156.72844485
C        4.78225196      11.65271619       3.39867794    -154.22153761
C       10.29501794       2.48757825      10.83687402    -156.70006308
C        0.87270202      12.32752919      10.33753345    -157.07009197
C        1.69149576       9.64153698       7.60309535    -157.63843531
C        4.45640290       1.34332420       5.17442473    -154.41355759
C        0.27026319       1.80955863       0.38706323    -152.85247286
C        4.10748849       9.30063291       7.51379297    -156.54311159
C        2.58760236       8.05546334       0.38637857    -156.75765867
C        9.30678615       5.68649272       5.76613811    -156.61577769
C        7.49919606       6.76110502       0.37234994    -152.85356742
C        0.89384463      11.96684068      11.73374822    -155.16765082
C        3.51211041       0.79001096      -0.02722194    -154.18952006
C        0.94082960       7.93065296       2.81461586    -155.03716617
C       11.78561120       3.86176766       6.51055571    -155.99519044
C        0.57308282       5.97471667      11.66666930    -153.10818760
C        7.32382268       7.46038239       7.44332172    -156.59775670
C        2.75326923      10.46715994       0.53552456    -155.96855540
C        2.05115667       0.58830372       1.37562558    -156.01069685
C        8.56245522      10.69642675      12.14980346    -154.76372789
C        6.67819112       2.73344764      10.69456963    -155.01919765
C       10.83181029       0.94327479       4.44368786    -155.76716365
C        1.11508871       7.61031333       9.52029225    -153.63463855
C        6.57445278       0.33001519       9.31646790    -158.95549015
C        1.46751554      11.13475496       6.07337890    -155.56981857
C        1.76991546       8.96505258       0.25779949    -154.45602993
C        8.49922671      11.75240602       6.29305062    -156.14685774
C        1.50744347       9.98977045      10.49949847    -154.62786102
C        6.23149351       1.68290352       9.74820955    -156.56364191
C        6.33607374       2.08827417       0.82697123    -155.78377041
C        2.60534398       8.04849297       5.47475706    -154.00056612
C       10.63323538      11.60792262       7.50724355    -154.53451342
C        8.61644768      10.80425073       2.49593525    -155.04378490
C        4.51720478       5.67824713       0.21754347    -155.82681995
C        1.04215864       5.78054930       5.74327085    -157.11487219
C       11.62207382       8.05049866       3.01179175    -155.35644956
C        7.72435245       7.28003195      10.65144747    -154.55825186
C        8.45547312       0.38451775       2.87607393    -156.13921583
C        0.78818356       4.29083507       2.56135516    -156.52961707
C       11.56051671       9.09862853      10.50105845    -155.08938409
C        7.63029586       1.88868403       1.15622748    -156.15319844
C       10.41948166       1.40427465      12.24415719    -155.46275278
C        8.36220890      11.85290060      10.72914908    -154.49677565
C        3.31003174       4.29681498       8.29178717    -156.11620234
C       10.72974335       8.71879938       9.56534582    -156.59043360
C        9.70483977      10.28468001       2.28640337    -157.47166108
C        0.19216911       0.87371600       9.21079816    -155.68510362
C        8.68351423       9.34761788       5.85575000    -156.48728396
C       11.95514087       3.95005482       3.36692130    -156.72777625
C        4.78049390       9.38690201      11.30492843    -155.90765264
C       10.63153921      10.52881610       9.41202256    -154.85788224
C        6.18578377       8.71541943       6.25708453    -157.30402463
C        5.24338553       0.33701898       7.06764011    -154.22030886
C        1.81441189       5.49743860       3.19789925    -156.60684711
C       10.37499761       6.22431267      11.16874013    -156.16535358
C        2.45364260       0.45893351       5.12846737    -156.10766449
C        5.88527810       7.28956513       6.25616835    -157.21467060
C        8.82648718      12.11588020       3.91912769    -156.01658101
C        8.82835667       7.01172863       8.48028415    -154.26590675
C        7.56901113       6.60518181       4.06805578    -154.27192775
C        7.76969077       0.83493948       8.59458327    -155.62446481
C        6.71534576       7.23738025       8.61539532    -155.69241914
C        6.79902727      11.93411835      10.50937831    -156.93345306
C        1.97313315       6.06908278       0.95686020    -155.35876562
C        6.99113944       3.74036199       3.32017157    -156.11455187
C        3.99592551       3.29454341       9.03091819    -157.31225750
C        8.34180542       1.16786291       6.22790309    -156.35706654
C       11.44951087       4.79480605       3.99024275    -154.86743520
C       12.07004665       3.40173598       9.27059721    -155.33028755
C        4.59283881      10.47668074       8.75375025    -155.82008612
C        2.37435625       4.85466699       1.38892251    -156.45369433
C        9.40700835      10.68964209       6.55978158    -156.04982907
C        4.23269505       0.91154540       8.97726000    -155.85333273
C        7.74554830       3.66813267       5.99037832    -154.91859406
C        8.10761107       4.75237720       6.68583004    -155.10489075
C        8.21336748       8.29568711       2.24388786    -154.59459424
C        9.83059109       7.18380873       6.69314707    -155.62869673
C        4.53306453       3.85802867      10.08395084    -155.43181412
C        9.57994273       8.80005427       1.86145875    -155.90044076
C       11.07335880      10.66197111      10.53993401    -156.05720939
C        6.83203436       5.49908524       0.73718476    -155.75734790
C        2.01675055       1.38398259       5.73767475    -154.90449993
C        3.41542910       0.29360711       1.22211661    -157.61720786
C        1.39054439       3.05506249       9.04527986    -156.01482582
C        5.72942917      11.28575064       4.50083742    -157.00231157
C        5.10948767       2.21773971       8.57482359    -157.09626693
C        9.45436474       5.05907324      11.77765038    -156.23796806
C        8.24582981      12.02064744       5.05669614    -155.92884158
C        6.19948926       6.69507846       4.59911585    -156.30557704
C        3.76080261       6.84070089       3.85524300    -154.97036454
C        9.95111773       9.12943185       7.27416347    -155.92488394
C        9.64885400       2.59546414       3.02408584    -154.13321077
C        6.39043763       1.67421223       7.00896772    -155.15560522
C        5.59789604       0.36950113       3.80032198    -156.54363510
C        6.32275205       0.12197209      12.04691940    -156.25448660
C        1.19879251       1.26570925       7.01895899    -157.32812198
C       10.86343074      10.39146401      12.11937157    -154.69223617
C        0.86607089       8.57197602       7.24724771    -154.96927623
C        5.66647304       3.74114197      11.07611971    -156.16886009
C        7.55459993       8.85513624       6.52078221    -156.27102261
C        4.08597074       7.63164537       0.29620583    -155.62677061
C        9.83527102       6.35728197       4.57747429    -154.92866327
C       10.09623255       2.27935872       9.31184988    -153.02513484
C        6.41095254       4.08494313       4.62546209    -155.41176911
C       12.30322577      12.31904837       5.63628876    -154.08397643
C        9.85219551      11.32401955       0.81570598    -155.90822916
C        2.83808977       8.91850094       7.09179497    -156.53484459
C        7.75059965       1.75011863       3.51785507    -155.03286409
C        1.60634093      11.03458228       7.69956618    -156.67327507
C        5.16367823       6.51398517       7.11713837    -154.72744646
C       11.78008939       6.25181033      11.12461512    -158.22548806
C        0.50831043      11.40845629       2.67215053    -155.67530935
C        4.51230200       4.92009928       6.36463614    -154.87420936
C        5.75747158      10.49937466       7.96949138    -154.85753237
C        5.07344730      11.74294712      10.92426976    -156.12675326
C        9.53056828       1.73253796       4.12285300    -157.81277318
C        5.90642443       5.51960015       2.36942871    -155.29425199
C        0.36301980       6.71377340       6.11918769    -154.60955499
C        1.63034722       6.44681958       4.46770653    -154.83526501
C        0.63256739       0.70776190       0.68358972    -157.31245001
C        2.81877580       5.17742087       9.14246878    -157.28656976
C        0.36025271       0.72005599       2.98163224    -155.90871951
C        3.37666496       8.70862240       3.78784218    -154.98407866
C        4.98993911       9.64141317       6.42168665    -156.24424590
C        2.72188402      10.83164934      11.38654236    -155.14400229
C        8.61628673       1.99557946       5.07790437    -155.94832570
C        5.78891869      10.30305305       5.26276141    -155.98596390
C       11.65780468       1.16406326       3.37951253    -156.33525549
C        1.43558557      11.04187455       9.39772279    -157.11148671
C       11.20021201       7.60988000       9.43427077    -155.10616238
C       11.14758142       0.60383785       6.34630024    -156.26839400
C        5.82510764       3.08096303       0.47928127    -154.50152355
C        5.82797997       8.73348295       0.72547133    -155.41600204
C       11.79998526       5.30245411       8.50968844    -155.48252504
C        2.05456137       9.07647936       3.19721831    -156.70253138
C        2.69425017      11.59890943       8.63862162    -156.07374672
C        9.32805629       8.05587190       5.71590939    -155.71173618
C        4.99188289       3.70741680       5.42643498    -156.83541986
C        1.81962418       6.78239992       8.75448071    -156.00279953
C        1.69494999       4.18703483       9.65830052    -155.56368161
C        8.35045956       1.52202800       7.79842650    -155.08082800
C        6.01632838       9.84151092       1.56986723    -156.22560838
C        0.05246320       9.87013522       1.03844070    -153.15009039
C        2.36890872       0.15998163       2.80300272    -155.20803173
C        3.11717673       5.16989337       0.37497466    -156.23302107
C       12.13872269       8.19104498       6.20078924    -154.79500758
C        5.30235506       2.55660095       6.02670346    -156.58974369
C        2.18148886      11.37613014       2.33477498    -155.46591988
C        2.86897976       0.49909172       9.04859790    -157.57997828
C        0.66899405      10.19394146       3.56321816    -155.50112143
C       10.34155719       4.55300992       0.19617800    -154.41197239
C       11.26809568       5.04073735       7.45280537    -157.30089605
C       11.48811406       2.15228266       9.95012727    -157.11898001
C        3.73330496      11.21139183       1.62591491    -154.71347567
C        7.06297257      10.23637031       2.43591336    -155.05027234
C       10.15107929       6.47904669       9.40094178    -156.31357125
C        2.53057660       4.09650676       6.68872714    -154.72530287
C        8.50965130       0.91523610       0.61542005    -157.89664230
C        2.36087361       5.39235076       6.48736655    -156.06641599
C        7.07314955       6.30571613       1.71312494    -158.30945740
C        4.86379161       8.05302433      11.69544217    -156.49523231
C        5.94218005       4.86840963       8.95108709    -154.27517241
C       12.21148438       1.26424832       7.31254381    -155.71534215
C       10.80453549       3.94665011      10.60452441    -156.09325239
C       12.30018010       5.86514700       9.68231918    -154.94495783
C        9.11539207       1.43549891       1.91718453    -156.84995133
C        5.43907573       4.76594651       0.93428018    -156.84930473
C        7.85485798       5.18757309       2.55933710    -154.13281782
C        2.26249614       4.56336023       3.95784231    -154.87435378
C        6.77706382       8.02267910      11.21546510    -155.24259858
C        1.68221019       3.21929319       1.88827547    -153.26037435
C        7.56003508      12.03695289       0.58206010    -155.27701147
C       10.46635519       0.80963322       1.25449228    -154.64195655
200
Lattice="12.38075404960777 0.0 0.0 0.0 12.38075404960777 0.0 0.0 0.0 12.38075404960777" Properties=species:S:1:pos:R:3:gap17_energy:R:1 anneal_T=2700 density=2.1 run_id=194 time=2 pbc="T T T"
C        2.95063083       7.73901126       0.52394113    -154.80587784
C        7.37452187       6.81860125       3.30579752    -158.27027566
C        8.76465769      11.58869531       0.69708350    -154.11048343
C       11.76706483       5.93169355       4.16601231    -155.03795941
C        1.35330308       1.25836746       8.13452683    -155.36663460
C        4.19015478       1.28175471       2.44951981    -156.07103381
C        7.81879284       1.75502141       9.15120959    -154.53194711
C        2.65423558       1.02125621       7.92579970    -156.79212035
C        2.23066522       9.15424288       8.84921824    -155.54903248
C       12.15343102       2.42135359       6.08293684    -157.12577819
C        2.79116672       5.36221601       1.37737127    -155.41456243
C        5.10925244       6.13249700       0.44732779    -157.16553700
C        4.47624925       1.93054336       6.72666177    -155.44701693
C        7.67523800       0.31681978       1.83169542    -155.72651318