200
Lattice="14.172425494135853 0.0 0.0 0.0 14.172425494135853 0.0 0.0 0.0 14.172425494135853" Properties=species:S:1:pos:R:3:gap17_energy:R:1 anneal_T=3200 density=1.4 run_id=317 time=0 pbc="T T T"
C        5.74200071      13.42577960       0.43629387    -153.13920577
C       11.28453870       1.24849573       1.34570581    -156.20569875
C        5.29792193       9.80964272       9.65493652    -155.96760068
C       14.13245925       1.40992816       3.76449383    -153.90187183
C        1.31976461       7.52467925      13.98544868    -153.67566138
C       13.66586049       2.17475869       9.31411803    -150.93552237
C       11.13428264       7.04115861      13.85185940    -153.37561953
C       12.97903641       5.92686582       7.00506144    -154.24241690
C        6.34163603       4.25600772       1.90556764    -153.63358250
C        5.91331699       2.48632529       3.21694217    -153.64709660
C        3.74346195       6.50111833       7.90221849    -153.86548480
C        4.49899396       9.28971312      10.22831034    -156.00769488
C        9.87047077      12.38314260      10.72036278    -154.85313831
C        5.18051755       6.43246710       5.35424314    -154.39370734
C       12.53655911      12.92635750       5.19355618    -156.06010467
C        5.05629624       1.12949696       4.28679023    -156.27136507
C       10.07230028       1.34968260       8.44359097    -153.44993534
C        7.16726485       6.07423070      10.03576377    -155.66385348
C        2.54403541       7.11271518       2.46957349    -155.32822986
C        9.60958476       3.25892090       6.57511257    -155.15484623
C       10.15777418       0.20317731       4.57021039    -154.80120311
C       11.50003043       8.32289860       8.18297424    -153.48855863
C        2.95163437       2.15384019       6.86252936    -154.73593394
C        0.93195744       2.60310608       2.35511698    -152.13442449
C        6.23087852       3.49924272       6.99205115    -153.26807344
C        4.06048494       8.59984196       2.58126637    -154.85287928
C       13.14366330       7.21532354       4.04567475    -155.15428946
C        9.37085025       1.95124537       9.75877788    -155.09187490
C        0.19211290      11.92438119       3.01280256    -153.09262482
C       11.29294294       8.51618213       4.37757879    -154.59752352
C       13.79114473      13.66583214       7.49439277    -154.08275615
C        5.06127076       9.86799060       2.06120922    -153.78023010
C        3.58260492       3.99641140       6.62541050    -153.46399421
C       10.10597396       2.36493847       1.40374048    -153.86112730
C        8.89515279       0.58659244       5.20391623    -153.99810636
C       10.97397834       9.94470593       8.71983989    -154.54031490
C       11.31903438       9.66215029      10.38307323    -154.15471792
C        7.58781740      12.21212394       1.86802489    -152.03058536
C        0.13429564      10.11385383       8.57944784    -151.75102084
C        6.32991543       9.42894303       8.98638070    -153.36127760
C       12.35699448       0.71820467       2.96610441    -155.39656539
C        8.61195939       5.69761267       9.72048399    -155.06190351
C        1.22370249       5.23788753      12.40682473    -152.77291886
C        8.47896535       2.98322470       9.64451979    -157.64635642
C       11.71641502       6.77718301       7.79962430    -154.31196731
C        4.99680040       1.88198473       6.55253589    -154.46859388
C        8.84999944      13.99419307       3.10251401    -151.61096513
C        8.06599504       6.38051099       5.06100149    -153.51291513
C       12.15835376       5.67449744      11.66862560    -151.42001206
C        1.95315865       6.87490188      10.41086535    -152.19780791
C        2.91281609      12.66375663      14.13985726    -153.89885229
C        8.20736498       3.49538782      11.34611788    -152.73364828
C        5.29488903       0.42153470       7.74676115    -153.56241621
C        5.23159497       8.11202708       4.70025657    -154.98799855
C        5.45559016      11.95380315       1.71442414    -153.43419679
C        5.01650007       9.69273438       3.82856737    -153.79011690
C        7.19301615       8.47029182      13.88899116    -154.25337494
C        4.27129977       7.80824114       8.41834988    -154.99837172
C        3.60428873      10.75800474      12.87168028    -152.10160105
C        5.22956832       4.31663736       4.01092397    -155.22549267
C        8.23556811       6.60206852       0.00329038    -155.14383062
C        5.80506800       5.11528188       3.43373777    -154.82085106
C        2.89393842       1.28105688      12.63515667    -155.15316190
C        1.72611639       5.26549542       6.25003964    -154.01557639
C        3.07042764       3.27922998      10.89948807    -153.50458831
C        8.02903335       3.66623641       8.56723121    -155.14914312
C       13.50653408      12.46855981       4.62536947    -156.03409258
C        5.47723145       9.45915864      12.82656945    -155.80527560
C        8.88973893       0.98601391       6.13463358    -153.05944412
C        2.57369830      13.93182023       7.11706612    -148.69712265
C        3.69197353       3.19133260       2.24651368    -153.12285541
C       13.82137451       5.73284532       3.04388269    -152.66114569
C        9.17305988      13.63636767       9.16611540    -151.63774117
C        5.58657172       1.29644246       2.04053165    -152.73119457
C        3.97985801       5.99747285      12.28657170    -153.62948507
C        9.48649725      12.01084716       7.31222042    -154.44217007
C        7.55558931      13.69003865      12.05130943    -153.15334349
C        6.67393689       8.62998671      12.11784897    -154.91785777
C        6.80976542       6.38348720       1.49691993    -151.81761687
C       13.71390501       6.95110701       8.93183103    -152.09520127
C        4.85533125       4.82497391      11.91267477    -155.20756096
C        2.95521999      14.10646703      13.68118088    -157.44914700
C       11.91942084       3.86317643       8.59659648    -152.95076308
C       11.62616501      12.18954727       9.27164328    -155.73117947
C        2.14408956       6.23330201       5.91246664    -154.50937348
C        2.97065376       3.65543702       3.20387520    -157.32884682
C        5.82687936      12.72044633      10.27821145    -150.75221447
C        3.54606841       1.07469361       3.20186271    -155.12812260
C       11.56685341       2.37493003      11.24312687    -153.27125834
C       11.64831651       9.68206255      12.91638011    -152.52416828
C        6.67647375      13.57814735      13.38772664    -157.02845434
C        8.97070599       8.95077956       6.15361046    -153.95701334
C        2.40642116      13.10779289       6.93856442    -148.25410478
C        7.79052560       4.55496086       5.83855744    -153.96520633
C        9.71691254       6.50083488      10.87183767    -153.07763630
C       10.11857325       7.94737184       1.30982548    -157.05563916
C        0.45223643      13.06459534       8.66150619    -154.54013344
C       13.29530825       4.80304917       1.15602207    -151.74745901
C        2.07711068       8.67074661       4.96247479    -154.03607905
C       11.73977118      11.96256170       5.40883533    -150.58480757
C       10.05432965       5.44671822      10.46490481    -157.72289925
C        8.32553467       3.39228342       5.21216458    -156.16504754
C        7.36132787      11.50997947      13.27097420    -154.97463663
C        1.30121432       2.45637896      11.27030958    -153.29501631
C        0.38890695       4.58645199      13.53674969    -155.27682409
C        3.06057780      11.74490159       4.62590803    -151.47920794
C        3.95152733       7.33085716       3.70814427    -155.32103519
C       13.59951937       2.27743791       2.96111572    -155.28106254
C       13.52470313       8.52624456      13.74562290    -156.65266882
C        6.08067916       3.56668929      11.86813083    -153.58715317
C        4.94269008      12.45686756       8.11643470    -152.94703094
C       13.73852252      13.25546956       5.55186345    -153.55762156
C       11.11869297       1.59203107       4.66009192    -153.70286483
C       11.40154624      11.55058347      10.44487918    -156.01793514
C        3.19963764       8.04915820       5.30791349    -155.80025982
C       12.79363274       7.89239700       0.78064554    -153.93886403
C        8.34741689       8.24648088       4.43949811    -153.87887751
C        1.61891616       1.77209174      12.66021352    -156.82195541
C        2.50374321      11.62739801       9.60035851    -154.21210692
C        9.36594659      10.62271477      10.80429189    -153.41558574
C        5.57645260       6.90309084       6.21544475    -152.18530337
C        3.27017380       9.05943955      10.48004096    -152.74850864
C        2.35765384       4.92785155       3.63060693    -153.62445935
C        0.17972194       7.75761723       6.69199256    -153.40761985
C        3.01334111      14.11480041       1.78087864    -154.29710105
C       10.87749246       1.66432462      12.30462737    -157.08932144
C       12.91640846      13.91516763       2.92725780    -151.56026606
C       12.34208509       3.33735110       2.26329383    -152.30641753
C        9.97127923       8.64889273      12.98963738    -154.29659205
C        4.08776686       7.56047879      10.51742782    -155.08522826
C        0.60012711       6.06139049       0.21028053    -155.55455492
C       10.23842945       7.23174938       5.56135897    -153.50233129
C       12.17520478       0.41158283       1.06198094    -154.90863187
C        4.91214850       7.90622929      11.86838594    -154.70220166
C        6.21031433       7.22576862       8.61480804    -153.17978364
C       12.23939169       9.64504417       4.95874744    -153.27660676
C       13.65951124       9.67316226       0.17031571    -153.30696442
C        5.96121978      10.64924555      12.74981160    -154.79580873
C        2.15534247       5.90400570       1.94271357    -155.36280950
C        1.96608390      11.16072839       8.03431967    -154.51938905
C        4.76209086       3.01896756       8.05550744    -157.58982267
C        2.88927570       2.28185971       5.25901862    -156.01386079
C        7.35195990       5.89500621      11.70305042    -153.22574269
C       12.54424056      13.13470633       9.92881865    -154.57573349
C       10.87733657       8.29431281      14.07385627    -157.33883600
C        2.42824669       4.87469078       8.39575904    -154.14301164
C        7.41178171       7.19803318       1.21453718    -154.81080161
C       13.65910024      12.72474057       0.54646038    -152.73375490
C        9.61274521       6.46636755       0.73568919    -154.76928652
C       13.66838318       5.46297399       0.36342634    -156.43886797
C       11.74230804       4.17070389       5.27221315    -152.62878572
C        9.79994878       7.83519709       2.54268903    -154.63658366
C        3.36203947       3.52483812      13.00780643    -153.93048023
C       12.97614523      13.19425886       7.77803970    -150.72604730
C       12.97063216       0.22996745      11.87242508    -152.04868400
C       10.76245489      10.78962343       2.89518560    -149.68813826
C        0.00567434      11.99273480       5.59002979    -151.91621928
C        3.54329062       0.71035881      10.44923011    -151.32716134
C        5.48095880       4.26368918       8.53579677    -153.44258194
C        7.81705638       8.74860991       7.33374833    -151.96434347
C        8.32767470      11.18510496       3.53091809    -151.30736639
C        9.22389637       6.87838830      12.99747473    -153.56480411
C       13.91888080      12.76048343      11.10705741    -153.81870263
C        8.10009389      10.73848931      13.00189653    -152.93278579
C        0.01068086      13.98190558      11.89640482    -158.15474824
C        8.40627497      12.20985636       8.01357124    -155.85419598
C       11.21526388       5.13360682       9.99695967    -153.69721268
C        8.08049343       7.34881362      13.43439644    -154.64955088
C        3.24025581      12.60345296       1.80483004    -154.64827222
C        2.38510583       1.87533786       4.34155248    -154.21819043
C        4.15882740       0.14242437      12.84717616    -153.69722548
C        9.74327325       7.80641289       4.22450242    -157.90130047
C        5.80965987       2.80469466       2.13588373    -156.30485969
C        3.87825589       3.04918317       3.78654613    -154.72565004
C        4.38157541      12.32536162       9.28609915    -154.46765193
C        1.20896175      14.10078388       7.88393606    -156.76942044
C        9.63040405       0.34705577       8.95589581    -156.07434712
C       13.13728571       9.26437282       6.91652630    -153.75403325
C        5.69521753       0.14531413       4.70705933    -153.26190063
C       13.52151434       2.40781006       4.67823262    -151.63527514
C        4.53473681      11.32383883       9.33549005    -152.46146289
C        7.72907397       0.12057262       0.28352788    -152.70173515
C       11.64359710       6.03606436       4.23805126    -152.60815009
C        6.43007196       7.05337524       4.09614276    -154.26093006
C        9.12541219       3.81596808       7.91459102    -155.62211237
C        9.32855974       1.54778476      12.19647759    -152.87650508
C        3.92306910       2.46982859       9.05659089    -153.30865425
C        0.50599811       7.43162310       4.46751700    -154.32123343
C        7.41349657       0.18245439       6.90436636    -152.25908254
C       13.53057052       1.51627946       1.03702614    -153.53235357
C       13.06734479      12.45560621      12.74684956    -153.40790447
C        2.20327361       9.10340241      12.97893720    -151.79908951
C        0.74675502       1.03028431      12.12632408    -156.73260645
C        1.93377077      10.21868726       2.04829814    -150.61539434
C       12.61331697       1.93391249       2.97229776    -154.34269936
C       10.03798884       4.65412533       3.65567795    -152.14449018
C        9.11937474       2.40850451       5.45367688    -157.69359684
C       12.01508471      12.04140291      14.14101940    -154.84013387
C        0.68013753       7.85163710       0.70924061    -154.45805586
C        6.58319085       8.80622082      10.38480226    -154.63764079
200
Lattice="14.172425494135853 0.0 0.0 0.0 14.172425494135853 0.0 0.0 0.0 14.172425494135853" Properties=species:S:1:pos:R:3:gap17_energy:R:1 anneal_T=3200 density=1.4 run_id=317 time=1 pbc="T T T"
C        9.62654915      11.87524539      11.39114368    -156.67044030
C        9.27114724       5.80784580       2.53604216    -156.23247033
C       13.18557116      10.90699945       7.97369003    -156.25509874
C       12.23152600       8.66710429       6.17084413    -156.42064772
C        6.14823911       5.37295075      11.96047836    -154.69999376
C       13.31223013       3.04385434       0.36137134    -153.92493820
C       14.11807424      11.97005892       7.11128377    -155.90497962
C        4.36140805       4.38139117       5.99455333    -154.72069452
C       11.09240312       0.18099888      13.50758284    -155.67305177
C        5.66726951       2.39947667      12.01040781    -157.57823896
C        0.41110947      12.16792015      10.45635884    -155.94678056
C       12.16760836       2.21126686      14.10555999    -157.04598385
C        1.73576781      12.06575113      10.51105023    -156.01474361
C       12.34958230       9.09747834       3.13142576    -156.18855328
C        3.88494528       3.55100041       4.47930846    -154.91302316
C        1.53389578      12.74957066       0.64019539    -156.38267896
C        3.41953700       9.66182432       6.56198890    -154.06985226
C       10.95858708       9.26651286      10.59869251    -155.01209815
C        8.73625156       4.92515879       5.02182890    -153.37607050
C        1.17801059      12.03552135       7.05150448    -155.81058105
C        0.10949177       9.88530930      12.81684717    -156.51703019
C       12.30017722      13.48333382       6.93877700    -157.39305085
C       13.40532879       1.52038946       0.73936268    -158.00889250
C        1.47636991       5.08406003       8.56714618    -155.26113364
C        6.52686963       5.14748163       6.03305981    -156.38860539
C        0.78010841       5.67028823      11.87399822    -155.29759677
C        0.76328432       7.59836169       4.71329520    -155.13052946
C        8.04042798      11.23903104       1.41441940    -154.20562443
C       14.10665127       6.97358448       6.31657918    -156.38449625
C       10.54992519       5.53029301       4.90717398    -156.05285636
C        5.94672139       6.82614874      10.41652015    -153.15190475
C        5.00229930      13.65069599      12.72519409    -155.49634573
C       11.72313275       5.94830870       8.92634630    -154.96983238
C        9.64419382       5.43545114       5.95576340    -156.66469539
C        9.89188530       9.58499560       4.12984479    -154.46122765
C       11.39548044       8.10253155      12.74955649    -156.62755658
C        5.58725199      11.23123620       2.67265017    -154.61340898
C        7.92001906      10.93781031      11.76822941    -154.70078857
C        9.48135266       9.03911629       9.59298885    -155.65246069
C        6.97351362       2.63407283      12.50569157    -157.01200574
C        2.33754317       5.21366686       2.57033943    -156.56134420
C        9.43240110       6.96920520       8.18246403    -155.17724921
C        4.85771222       6.05224927      12.41619270    -155.71489257
C       12.51073695       9.80631220       5.66121788    -154.31844131
C        2.82131892       9.91779250       2.16814017    -154.82587837
C        7.51348303       7.03026001       6.66543343    -156.10543626
C        9.91284632       1.89396043       1.14398685    -156.51240800
C        8.22496714       9.58798598       9.83485546    -156.59620603
C        9.91202432       5.16314216      13.00820326    -158.46270564
C        1.80793380       5.36321429       7.02605080    -156.62934459
C        0.61776894       8.89869590       0.51834938    -155.66550250
C        2.43315035       5.62000447       9.70668005    -156.74724850
C        3.29728565       9.13419909       5.38253131    -157.42908123
C        6.74393450       5.99699099      10.97600499    -158.08750966
C        2.92313362      12.99388911       0.80303514    -157.04042254
C        8.94104311       9.77398490       8.35101669    -156.79134974
C        0.79622387       2.85513432       7.59979310    -155.93992971
C       -0.03421861       2.05620635       9.65116666    -154.73365741
C        3.85730905       2.63960008       1.31537682    -154.28589814
C       12.70169621       3.32241336       8.33239412    -154.59908619
C       11.07675677       9.97290906      13.54888129    -153.86707853
C        3.16416406       9.30321944      10.59298102    -154.60676442
C        3.11963430       9.03918715       8.70133070    -154.64848372
C       10.27133783      12.57258541       1.58884228    -154.54635181
C        0.57008015      13.75605381      13.54858367    -155.63434020
C       11.42236553      10.59408647       8.06164410    -155.53216583
C       10.30243213       8.53897139      12.41544156    -154.15241601
C        1.62678186      13.16755801      12.85246247    -156.10260788
C        2.63899066       0.39085849       0.79932622    -155.61116249
C        3.09317438      13.97673264       9.51726558    -154.30025839
C       11.02678479       1.77411840      14.12126304    -156.04619678
C       11.28645197       5.74139129       6.18116166    -155.81703411
C       11.83122584       9.98869714       1.45610334    -154.68271482
C       13.05114571       7.68919276       6.19719067    -156.55832713
C        5.86160180       8.68476314       7.62126433    -156.81018944
C        1.16950997       4.90107984       3.45784506    -154.74790678
C        2.42287535       1.85820340       0.77473139    -157.04108185
C        1.27360643       6.45356985       6.08240819    -155.94952533
C       11.24471418       5.75083013       7.60519280    -156.14709126
C        0.03267524       6.29041688      13.17237663    -156.83114832
C        2.38326342      11.24307018       0.87529467    -156.49967714
C        2.72639201      12.35576148       3.83123178    -153.65444247
C        4.53915861       2.65466536       3.58352613    -155.57687241
C       13.59582036       7.41688378      13.72206833    -157.65005030
C       10.42050260      13.80343222       4.86899347    -155.17901311
C       12.78067914       6.12090050      10.32214597    -156.75175717
C       13.86189348       3.79901786      10.16162908    -156.06016521
C        0.20097917      10.93459317       2.54335513    -155.99482146
C        8.09798220       7.02603663       8.87283122    -157.09224282
C       12.92536543      12.91713125       9.52632176    -155.97343714
C        2.16857951      12.98301886       7.63346679    -155.94277448
C        6.56816808      11.42143015       5.73521211    -156.35208984
C        7.59646258       6.96104189      10.38570930    -155.22690631
C        0.97617399       4.32834378       0.85391415    -155.98299371
C        7.29928099       4.31412884       6.96678172    -153.56171518
C        3.98238070      13.57487352       3.33735110    -154.56307178
C        9.92203005       1.58021127       3.17894590    -156.95602508
C        5.53009460       3.40542126      11.12804677    -155.11052054
C        2.21575952       4.16129340       7.35249845    -156.18437657
C       13.74009565       5.18411735      10.65695535    -157.25715380
C        6.31792556      11.82769690      13.95615428    -155.79740066
C       10.44935766       0.28939243       3.54126396    -155.82486768
C       10.45349601      13.19199127      14.15755862    -155.25287630
C        4.24077236       9.90520738       8.80148723    -155.51156102
C        2.73843857       5.11128525      13.76988609    -157.38760340
C       12.13178046      11.76199354      11.39069016    -153.57158944
C        1.83742662       7.87846550       4.26675042    -155.97346878
C        4.03894285       2.91149806       2.36337950    -156.98854887
C       13.14740482       0.34456851      13.96783236    -154.23170631
C        6.48086594       7.76335706       6.59693810    -155.87189847
C       13.84559519       9.00307581      11.45370077    -155.49532544
C        0.23714861      11.00262081       8.68328920    -155.13941284
C        2.14733505       5.28948933       4.00104579    -154.06522959
C       12.08777508       1.73300419       7.57653615    -155.65287155
C        0.21897531       5.06189435       0.01626328    -155.55663347
C        3.58984703       6.02574684      13.22971827    -155.88505320
C       13.42213729      11.76712396       0.05687111    -154.81840364
C        2.37939434      13.39270116      11.53590083    -154.87176760
C       10.72022106       5.17139051      12.13733606    -154.51960889
C        2.56478384       2.37650317      13.09077181    -155.26996323
C        5.51824645      11.17507088       6.57645895    -155.52988771
C        8.68851883       2.27553881       2.92555711    -154.91073765
C        8.67298585       1.93231101       1.43760832    -155.73685469
C        7.56925153       4.63551693       9.40146269    -155.06960935
C        5.63760662      13.15046606       5.39413852    -154.73971344
C       10.88532981      11.31427244      10.76696172    -157.19869528
C        0.31850117       3.64931453      11.49236314    -155.79384173
C        4.92979317      10.37148018      12.26845934    -154.21181547
C        2.09357904       2.04573293      11.09546437    -155.13794165
C        6.55314531       9.08283822       9.04688278    -154.85164640
C        2.27060681       3.64371642      12.99424342    -156.34290631
C        0.76405388       4.03873027      12.67255770    -156.53849479
C        9.89527251       5.36063491       3.46945228    -155.88836056
C        0.81871693      11.40846238       1.17761376    -156.35003126
C        2.30123342       6.53055446      10.45587698    -153.39211696
C       10.18355382      12.71595367       7.26760562    -153.87366112
C        5.09587983      13.30796423       4.32677064    -157.46534062
C        7.37370040      12.60321203       0.37858233    -154.59109092
C        5.96388420      12.69612645      13.13365757    -157.07483379
C       13.73591479      10.40333980      13.87975074    -157.16125410
C       10.53069321       1.64186132       5.35961449    -153.12243956
C       13.05569505       0.73359451       1.61075285    -152.32442686
C        3.57050167      11.81080337       0.21343673    -153.50537033
C       13.88267025       3.80732290       7.15356011    -154.53926038
C       12.23005206      12.17237029       7.90736308    -155.32616769
C        1.32510903      10.75738116      12.66688873    -155.13751628
C        4.90544495       1.10784433      12.80115829    -154.23026205
C        5.39588173      10.16707129       7.47201451    -157.02419021
C        9.23999625       5.44783784       0.08820903    -155.52394582
C        1.55807394       0.51988283      13.49440249    -156.34390249
C        0.74477230       3.02961105       2.13039900    -153.58976033
C        2.22335594       1.51793763      12.46909836    -156.03837630
C        2.69070584       4.66628527       1.11832200    -155.85980720
C       13.19909166       9.42327406       0.56930917    -156.73787366
C        6.44607263       4.09960083       9.92244105    -156.36655885
C       10.58001325      10.31666124       9.33639709    -156.46515492
C        3.03651302       8.95761067       4.22642987    -154.88846973
C        5.63491386      10.60927931       9.05124789    -156.70118010
C        6.78496367       6.65194129       8.73928446    -154.33349362
C        7.54738347       2.50062527      11.44302893    -155.12649455
C       12.59042850       2.27706943       8.95029770    -156.54312064
C        3.68439128      11.27851542       2.73118229    -154.70991026
C       10.75957788      10.71672047       6.25281744    -154.69967347
C        3.72170728       9.69082110      11.62202666    -156.34359036
C       12.36663173      11.49239149       1.21071488    -156.50775201
C        8.31786738       2.80789763      12.35605910    -153.74768564
C        9.32199790       5.83237826       1.25772481    -157.09082081
C        8.90769539       6.88961286       6.88337699    -156.56362914
C        1.02045999       2.37627641       9.11801418    -156.76116131
C        2.94103339       2.82102129       7.84941203    -153.19937756
C       13.81241754       1.43494391       6.18960842    -153.84143285
C       12.35963055       7.63716579      13.28232631    -155.88852892
C        9.33274060      10.36374204       6.33644892    -157.39204878
C       13.55951061      10.05210458       3.09857408    -155.89000455
C       12.24140418       1.77722216       5.76807797    -155.17771470
C        8.86583004       9.80364778       5.25351972    -157.78342665
C       12.72133919       7.24483053       9.84993493    -155.01105373
C       12.99427176      12.79911746       1.44870533    -153.07789539
C       13.33321949       8.16296277       0.88306966    -154.58222870
C        6.56694925      11.22603492       1.91975424    -157.43782409
C        1.86397157       1.23966064       9.76397916    -155.67158530
C       10.85775027      10.31039703       0.62439738    -155.50076995
C        9.45399987       5.09242176      11.44037869    -152.93431126
C        8.56711783      12.37743112      11.64539699    -155.29522084
C       12.70309928       8.70911136      10.78630708    -156.22201784
C        5.33019254       5.17119210       5.57608412    -156.85478652
C        5.56093380      10.83993554      10.26201237    -153.27573461
C       13.55155988      11.46304040       9.89409620    -156.33239346
C       12.03520956      13.40759638       5.57166232    -153.91117400
C        2.86810209      13.41034583       8.53745495    -157.48434163
C        1.64770036      10.54422788      11.07325618    -155.59786752
C        1.90320085       9.46794554      14.14222406    -154.70283024
C       12.72054554       0.15319258       7.86043818    -156.04152680
C       11.37373994       9.31390545       3.94550405    -156.31571102
C        8.33252167       9.42926899       7.29493006    -154.67462610
C        7.36478594      10.15794425       5.42774134    -154.86097447
C       13.88583071      13.65552879       8.95179998    -154.13853424
C       11.38459602      11.37334311       0.59066276    -155.25657738
C        1.68630605       2.77449322       1.38226926    -156.95837739
C        7.43294114      10.46637874      10.34261095    -156.03870596
200
Lattice="14.172425494135853 0.0 0.0 0.0 14.172425494135853 0.0 0.0 0.0 14.172425494135853" Properties=species:S:1:pos:R:3:gap17_energy:R:1 anneal_T=3200 density=1.4 run_id=317 time=2 pbc="T T T"
C       10.38373933       0.47000865      10.90600738    -153.97144270
C        8.91652481       2.46457062       5.83697013    -155.29362916
C       11.04355077      12.34362988      11.61250279    -155.67659314
C        0.29452001      11.72571213      12.61864580    -156.41749085
C        6.42342510       5.42993807       4.86315443    -157.47670133
C        5.75342368       5.60688080       3.82055995    -153.92641150
C        9.68202003       1.85964898       7.77144952    -154.48803952
C        9.44178324       9.78605980       8.55945055    -153.99697227
C       13.15382493       9.75221605       9.28791322    -155.19076765
C        2.58118134       7.09273206       0.70968421    -155.50951584
C        3.65033494       7.98477287      11.78285535    -155.30507558
C        0.54118966       1.03221318       5.29976434    -157.22171632
C        5.78047884      11.03677635       9.36421756    -158.17410647
C       12.99824004      11.21187667       3.83922503    -153.52776557