200
Lattice="14.172425494135853 0.0 0.0 0.0 14.172425494135853 0.0 0.0 0.0 14.172425494135853" Properties=species:S:1:pos:R:3:gap17_energy:R:1 anneal_T=4000 density=1.4 run_id=525 time=0 pbc="T T T"
C        8.83194377      14.07355865       0.52755578    -153.44936959
C        7.71993275       2.45962444      10.62855381    -151.42656814
C       13.78595762      11.79631915       6.41828051    -154.35275379
C       11.37940891       9.95411643      12.21932354    -154.86992536
C       10.61039893       8.28108994      11.09484078    -152.01924426
C        3.83654644       1.12700120       1.96235655    -154.80891737
C       13.04092739       6.79488437       1.22344880    -154.37125803
C        1.02320519       5.47655118       4.75037027    -152.77968199
C        8.54289716       3.42230062       4.98081391    -151.25674911
C        4.55559862       9.55772786       3.88286193    -154.05467353
C        5.14498728       0.81986773      12.47386030    -153.36355363
C        1.83789431      10.81336224       9.14256082    -154.44839656
C        3.40688102       7.04881172       0.11260375    -153.16180918
C        6.96158044       7.16512481       4.54110023    -152.98893943
C       11.37544063      14.08489659      11.16040242    -153.69700120
C       12.88919740      12.47088409       0.68639749    -156.39340293
C       10.88185757       1.54169062      11.73886414    -154.35831291
C        2.47558260       8.28270560      11.48191807    -153.70290545
C        7.67640923      12.84356219      10.18298692    -152.96670360
C        2.04372045       7.15334753       3.17667831    -157.05460449
C        1.94542050      13.23102213      12.18352399    -152.59755613
C        0.86472912       4.98520736      12.22996703    -154.94237218
C       12.05197554       3.09255079       2.16979834    -154.24308191
C       11.15719945       9.04056188       4.14354952    -153.96043773
C       13.75688998       5.93113172      10.80132985    -154.04711026
C       13.36901904       6.37502626       8.70103308    -152.90587734
C       11.30810744       9.77616745      10.89227430    -155.37414369
C       12.16416446       5.62947165       3.68362597    -153.37464320
C        0.81270215       3.50250237       8.09039996    -153.52323145
C        8.45825943      12.74567325       5.09646090    -153.95668485
C       11.80265423       4.25925321       5.69868977    -153.78948686
C        1.58372603       4.01453794       8.63398334    -155.20481627
C       10.29595533       6.67685641       8.89292772    -150.12823359
C       10.19846321       4.12508285       5.08608668    -152.30863698
C        0.18021515       0.75855923       2.48942906    -153.98056758
C        9.91843026      12.66446525       0.83449509    -153.55372490
C        6.23484680       3.76738501       5.01706697    -152.49915144
C        2.54213631       0.71948727       9.72951183    -155.76446052
C       13.08001494       2.93149535      12.49676294    -153.45813056
C       11.04880874      12.16827446       4.30681587    -154.25942183
C       12.20396063       9.85184820      11.57958025    -152.93013522
C        5.41310123      12.23817286       0.77919712    -154.63969254
C        7.10802411       3.39283615      12.38152695    -149.82172241
C       11.78724880      10.86750090       3.37162003    -153.23527419
C        3.62678037       0.64694571       3.17268169    -155.18128214
C        6.70572564      12.95386618       2.79949338    -153.02758938
C        4.70589720       4.65738498      10.62476977    -153.58789150
C        5.58703941      11.84800599      10.93619465    -152.80203662
C       13.52519917       4.68079783      12.30201964    -155.91806902
C        4.38530276       3.94505053      12.46374119    -153.24630105
C        5.27409808       3.58885496       9.01479641    -156.36686394
C        3.44513240       5.44100673      13.52728251    -154.41780068
C        3.71398331      10.62709405       2.06262646    -154.07552217
C        5.85024969       7.18519297      13.67811964    -152.39847047
C        4.89328501      13.23355899      12.31976352    -153.69775405
C        6.59533662       1.17448307       3.08974465    -155.02914088
C       13.86968831      11.48808307       0.92731172    -156.04030443
C        2.50256689      12.42578743       2.35738457    -154.16702702
C       13.16805404       2.01769987       8.56784063    -155.68117929
C        6.49873737       7.55791358       1.40251031    -151.48738047
C       11.33313594       4.03284871       2.85265415    -157.45993751
C        1.24733784       8.37173677       3.29875959    -154.21188459
C       10.68039654       7.36832905       2.12987462    -153.54607627
C        3.34887328      13.53133583       9.79320271    -154.39357128
C       11.00436402       6.22288528       6.53048360    -152.74063274
C        4.72810539       3.97397645       7.94615301    -153.61060145
C        1.81527512      10.79288308      10.14489144    -151.52585786
C        1.51887301       6.34279817      10.68599465    -152.81735168
C       11.48466752      13.84786278       4.30060834    -156.09351282
C        8.44352011       7.49471874      13.76950344    -152.73803794
C        1.69760147      13.07027848       4.99385254    -156.19086640
C        9.81348345       1.14588454       7.03969885    -151.35356170
C        4.04889189       4.07812961       5.14277638    -152.43921299
C       11.88023408      13.44693903       2.04370627    -154.02643233
C        5.48454442       1.39191076       4.82422278    -155.25552732
C        3.84798359       9.06663914       5.29719913    -153.22769851
C        1.43467463      10.31178593       1.67313986    -151.63608893
C        5.56451942       1.18132410       1.09405314    -154.08215707
C       13.86358000       8.32968719      10.33015339    -153.77068719
C        1.02415049       1.76598342       8.64126796    -153.85437265
C        8.43080744       4.03867358      11.06105372    -157.06014071
C       11.42442054       0.80062157       4.82758164    -151.73704086
C        1.20238574       8.76303744       6.18753925    -156.83684979
C        7.82772822       7.89769749       5.67510686    -156.17302423
C        9.00724251       4.90262463      11.48225820    -151.30647012
C        0.80288633       9.77449510      11.68199020    -154.12669289
C        5.14984842       0.99039177       3.29585424    -156.99147737
C        3.92542172       9.05738455      12.54844977    -154.74592774
C        4.82100564      13.26072753       0.39519100    -154.58079128
C        5.93362607      12.78416555       8.13059295    -155.26677241
C       10.04360112      13.34462829       6.18776601    -153.07027092
C       13.70207104       6.01816459       0.11545850    -155.27102793
C        6.73752856       3.37564499       1.30748703    -153.34720144
C        8.54020440       2.14118422       7.97166337    -150.93004787
C        6.48207059       6.16609637       9.06520773    -155.06592780
C        6.38746965       4.91187923       8.74672498    -155.88370539
C        6.08501592      11.47463344      13.25219573    -153.58089516
C       11.01619799       6.14580145      13.93815530    -155.44229612
C        4.45926865       5.96856110       9.73074483    -153.66096150
C        1.01773746       4.75311972       1.76018690    -153.13767581
C        7.11492608       7.17256534      10.58755298    -155.09859280
C       10.61775442      13.22499885       8.25665668    -156.56592820
C       12.20899184       2.63084152       8.09446744    -154.82116784
C        6.71490937       7.42319051      11.68369089    -154.89938192
C        0.86441024       2.04478338      11.24322608    -153.55346587
C       13.79918050       1.26654006       0.56341202    -152.21892671
C        9.20181574       8.04407030       1.51205608    -153.25443605
C        1.80925184       0.53241834      13.07081703    -153.47106974
C       12.15987021       0.73047657       4.04381817    -154.03221985
C       11.49725263      12.79319339       8.93293648    -156.72727265
C       11.04723560       6.48075256      12.81320485    -154.52512249
C        2.56584677      12.49022945       6.01945428    -156.29302066
C        1.11120745       5.64619511       9.95502346    -153.17576382
C        1.01026151      11.13249692       5.58757796    -154.08381188
C        6.98972687      13.57536955      11.93821348    -154.20295447
C        1.90097578       5.63939235      11.44981752    -155.20346055
C        9.62788136       9.36223342       6.05627424    -155.13563815
C        0.47486979       8.71268281       5.28321095    -153.32972298
C        4.21062761      12.11589318       0.05437024    -154.50728170
C       10.56737145       5.04416465       2.52048084    -155.04262309
C        1.06206456       3.03158102       9.83187926    -155.79417405
C        6.90917081      11.73208972       8.33179888    -156.24203563
C        3.09382631       6.05869773       3.28430371    -153.06718071
C        2.93400387       8.59656813      13.98479675    -155.55145554
C        4.15225139       2.36434323       4.04177734    -156.23259560
C        5.49868851       0.51388931      10.44465242    -152.36839404
C        3.96524624       6.34380441      11.81070416    -153.87069782
C        2.61948940       3.36912568       1.42530666    -152.16424139
C        9.76076202       0.11584229       7.25238444    -156.94155601
C       12.84048677       1.22828160       2.37821803    -155.09824464
C        7.38564775      13.59797457       6.59624365    -153.94954137
C        2.29577703       5.40257112       3.44825033    -153.42891176
C        9.49872805       9.60975483      13.18771120    -152.98611992
C        6.88679255      14.16633135       2.66666941    -157.26914325
C        2.21584455       4.16747258      10.84007726    -155.17267932
C        4.23841974      12.12246918       3.07893109    -155.07384640
C        4.34082969       3.71951055       3.36902647    -153.09706686
C       13.77038213       2.38684904       6.80048248    -152.93068517
C        3.82590295      13.07339641       6.11747077    -155.09694838
C        9.08109501       5.96191423       3.29866038    -154.77071651
C       10.79526405       0.63800008       3.37110982    -153.77827698
C       11.61292797       9.34867041      13.58816725    -154.84067106
C        5.67106772      10.13030802       1.33552860    -153.36738096
C       12.52258510       5.65974395      13.41537704    -156.29204861
C        8.72281610       1.07955050       7.12795054    -155.62500275
C       10.57485449       9.95744695       0.31737163    -155.25606583
C        1.87542289       2.70696161      13.00594984    -152.29737914
C       11.30355809       6.60994839       1.71827904    -154.39146931
C        9.66453126       9.75675123       3.42917424    -152.23296495
C        3.85239122       1.21769055       5.54344503    -153.32105759
C       10.99312528      11.49207969      11.32348452    -151.96772814
C       10.98550052       0.72529513      10.61925670    -154.27607320
C       12.70409135       4.21869172      10.12645312    -153.14464497
C        8.04813778       8.03427715      11.52766666    -157.39152142
C        1.66775434       9.10419607      12.94859404    -155.03589306
C       12.66834849       9.55911675       7.91838923    -151.93270626
C        8.15141225       5.54007199       2.04262917    -154.58176726
C        5.34337289      12.55784609       6.59532245    -154.88188799
C        7.78757774      11.52778003      14.08641304    -154.61321325
C        9.35569993       1.67234621       2.42113214    -152.25088186
C        8.46088133       9.13431247      10.57904953    -152.83178974
C       14.03896376       3.02816547       3.05184759    -152.54676435
C        3.61854619       4.38266669      10.42761716    -155.42464187
C        7.20346122      10.25070277       6.83572930    -151.88006937
C        2.70615379       2.90101046      12.20277014    -156.19823454
C       10.35085930       9.18604183       7.13318017    -154.87471568
C        3.24931199       2.08058292      13.94416441    -150.66280265
C        6.90527339       4.48477901       2.09115555    -156.90925406
C       12.82519473      11.81277334       9.12385322    -152.73751467
C        3.57668085       3.64346132      13.41502273    -155.93045184
C        3.34455069       3.42193214       4.62942279    -155.38628052
C       10.94150931       2.15823364      14.03826931    -151.42992877
C        3.94449781       2.56887967      13.20860135    -154.21535823
C        2.92277931       5.08903455       8.27201959    -153.92239277
C        7.69659077       7.73563580       7.21149699    -153.71681806
C       12.74765739       7.12121864       7.08391681    -153.23663004
C        8.00257343      12.32568759       0.83140692    -155.49802920
C       14.15775703      10.68741189       6.08178461    -155.77250932
C        8.31761228       0.23916818      12.00412943    -154.50622151
C        6.91770261       1.24153282       5.87927482    -153.39342599
C        1.57882237       0.21732564       5.55646948    -153.72811521
C       12.03819994      12.38933595      13.33106528    -152.32383005
C        2.76513942      11.19715152       8.52114248    -153.34002402
C        1.82594696      13.68753013       9.32520087    -155.44176090
C       12.74041528       9.33899064      10.65579321    -154.12842990
C        4.02947567      10.62012122      11.88971544    -152.16095952
C        6.44723477      10.44825221       8.46168916    -155.40921411
C        3.50649900       2.28144871       9.99688881    -151.40530068
C        1.38237697       7.81600763       7.23434294    -152.65315654
C        4.94739533      10.56058286       2.76101525    -158.08850079
C       10.51071009       8.15892363       5.56223766    -154.78860120
C        0.69923204       7.41781916       6.04021688    -156.61835512
C        9.52610918       1.05464955      12.96443881    -154.31165227
C        3.72782977       2.94602209      10.76765617    -154.99328369
C       12.30210467      13.03926921      10.21104833    -154.89168678
C       13.96729381       7.60060093      12.49428276    -151.95902855
C        1.04931079      11.33201632       1.69965647    -156.58781331
C        2.89495884      11.86866939       3.36715571    -155.87731179
C        7.98847187       3.06675698      12.00327908    -155.82810993
C        9.89510245      14.08329511       9.03122225    -153.96746824
200
Lattice="14.172425494135853 0.0 0.0 0.0 14.172425494135853 0.0 0.0 0.0 14.172425494135853" Properties=species:S:1:pos:R:3:gap17_energy:R:1 anneal_T=4000 density=1.4 run_id=525 time=1 pbc="T T T"
C       12.89031702      10.80596423       4.22141283    -156.65532492
C       10.58208243       1.82896568       2.30846135    -155.65716230
C        4.67871448      11.44343993      10.61300666    -155.79166714
C       -0.12145584       9.20742802       9.85663848    -155.72444811
C        8.32244508       2.60486346       9.87343281    -155.01583179
C        2.89677291      11.97072502      11.94807749    -154.10004947
C        2.80847870      13.95273873       3.16174058    -155.51414165
C        4.67043779       0.16685905       7.96408113    -156.46335271
C        6.64897925       0.19094509      -0.23773819    -155.61662595
C       14.15120937       1.76793922       0.12015156    -155.68399274
C        6.12451447       4.61851002       7.82947143    -155.76510601
C       11.67075146       9.17569595      10.59033078    -155.86257212
C       13.03878735       0.75733899       3.15763057    -155.64361876
C        4.98702143       3.07195826       5.85255980    -157.37121938
C        1.70287361      12.85378051       4.10261956    -155.20365593
C        2.31289732      12.72027626       2.67960883    -157.06298706
C       13.58540363      10.41514543      11.46805743    -156.48821098
C        2.29634393       1.62016334       1.04352703    -157.01436847
C        1.24394780      12.82598838      10.21972185    -155.27751607
C        0.96761952       5.97917625       0.94635663    -154.70036654
C       12.13094429       4.65008618      12.88853130    -156.31938155
C        5.40366239       1.51714398       8.33150126    -154.59553393
C       11.22137220       1.36108998       0.95235865    -155.12422306
C        2.40656288       2.61960278       5.06879632    -156.09827137
C        5.19977788      12.21290343       0.05257134    -154.57265652
C        9.23835225       9.77010165      10.08308550    -157.81877399
C        7.38869482       4.34342324      12.16210946    -155.46172539
C       10.98534462       5.58256092       3.03644216    -155.28477937
C        3.33599055       5.83239244       9.91067794    -156.31335176
C        6.41068409       5.85800201       4.47060659    -156.91195605
C        5.58661423      13.35327347       0.31715337    -157.83063621
C        7.92907524       6.46849341      12.96385774    -155.77835669
C       12.03219083       8.33660333       3.53708309    -155.44764762
C       12.31022547       3.97204900       0.35547278    -156.77728219
C        0.40441300      10.28515594       0.59708712    -156.01320632
C        0.86307378      10.23182510       9.49663053    -157.50151541
C        9.99576918       6.29516465       3.49312023    -156.27027917
C       12.48295900      11.30503202       2.10532798    -155.10944188
C       12.02915793      10.24749981       1.02262695    -156.88554304
C        0.39126524      10.90235090      11.85631103    -153.89549670
C       13.05121657       9.40894573      10.66747129    -158.95181956
C       13.02297092      13.13847619      10.67136871    -153.59280779
C        8.25210733       5.33158144       6.26878976    -156.33602357
C        7.29205305      11.80333450       9.73804363    -154.82840276
C        1.99411696       4.50439365       7.84075268    -156.87052568
C        6.67243461       4.29131123      10.83864585    -154.33432548
C        3.01294428       9.57131921      10.49086870    -156.88145205
C        9.08741592       3.30172162      12.59052771    -154.17049928
C        0.61387436       1.85196753       1.17777816    -156.97816063
C        7.49807760       8.48881518       9.98019369    -155.26371312
C       11.93194927       4.23970943       9.96658816    -154.09023204
C        4.71501007       7.74782409       4.13109196    -156.60993412
C        6.17693827       0.35579732      11.54579319    -156.53922631
C        3.97423156      12.90440441       1.05843075    -152.41250383
C        8.97339875       0.28991680       8.82757867    -155.54440674
C        5.52809629      10.42656840       9.57316163    -156.02252807
C        8.75220971       9.33038798       7.15005952    -156.12810848
C        9.85697862      11.90436973      10.45987360    -152.65356222
C       14.18730654      12.88131753      11.33337687    -156.81667709
C        8.61152004      10.97739389      10.58925367    -156.50726395
C       13.20076400       7.74841933      10.83357212    -157.02972078
C        4.40094912       6.90701660      11.97090926    -156.66645702
C        4.13087938       6.56982625      10.74982725    -156.37405077
C        6.18162935       3.75169613       6.29281202    -158.22583040
C        8.33965040      10.15665456       5.01576311    -155.64739797
C        5.44568363       2.86349605       4.62647492    -156.45797001
C       12.61803638       9.65228628       3.90260412    -156.12528322
C       10.57849680       8.63970900       3.66129023    -156.14002710
C        7.99195829       9.90858042       3.36057971    -154.47301488
C       13.34339529       4.32570771      12.40091482    -156.26951114
C       13.03463483       5.83270423      10.55251875    -154.50028321
C        2.72636366      10.17891944      12.50948978    -154.34167660
C        2.07300068       3.89910353       3.75192289    -155.57982119
C        6.64425983      12.69438324       9.01809858    -157.20484130
C       -0.17290076       1.97671322       3.27649471    -154.48057634
C        9.08591364       5.63925062       4.47342690    -155.35793967
C        1.51180097       1.39235577      12.37639653    -153.74386294
C        8.22464117      12.22188875       3.10600043    -153.02171886
C        7.61103184       5.24021181       2.47589439    -155.09923351
C        3.65917854       9.63668244       9.47005723    -155.68149738
C        9.16801450       2.51257263       0.63898790    -155.60055594
C       10.43128782       3.44334667      10.48162827    -156.01321604
C       12.12303608       2.39149760      12.64717489    -155.22172603
C        8.66720350       4.86136870       7.31185193    -155.29676856
C        8.60823204       3.82641316       4.60953887    -155.36323585
C        8.88706034       8.82542446       5.40298212    -155.06312463
C        0.46160582      10.95709898       2.17225017    -155.50493752
C        8.99006553       6.12700882       8.48280607    -155.86444718
C        8.24123708       0.17191010       5.25687858    -157.76301496
C        5.02585387       8.73615235       0.87277906    -155.71538349
C        5.29700072      12.95517004       7.95355101    -156.54238332
C        8.06143152       3.09592383       8.38150158    -155.52385330
C        3.01760701       3.21595010       7.58750561    -154.78366663
C       12.52541958       6.26526083       2.52616398    -154.07637088
C       10.15921977       5.48978822       9.06917600    -154.82991052
C        9.77123545       3.20223120       4.10848694    -156.39567553
C        6.98795532       7.22419548       7.68083103    -154.73271282
C        6.74924916       8.08397985       8.40165476    -154.57766807
C        0.89202805      11.66556436       4.30999049    -156.51846038
C        2.36220319       5.78215119       6.59498231    -156.76750949
C       11.91342590       6.75826282      10.42050260    -155.96777721
C        8.27458480      13.86766166      10.30688227    -154.37959449
C        3.03532254       1.72196387       4.25252130    -155.72483032
C       10.98694611       2.48408605       3.87254440    -156.34909458
C        9.79299012       0.72804175       5.42697603    -156.80808680
C        4.18204183      12.16193939      11.45343149    -156.44012212
C       11.06231506       8.28243632       5.77836715    -154.01704791
C       10.51205647       6.03894137       9.96600709    -154.67959503
C       10.36921260       1.64354784       6.35677218    -155.11990945
C        8.97389479       9.68002172       8.55619089    -154.61260317
C       10.19337531       4.94735281      12.29204225    -155.35562831
C        3.06244856       1.39999329       1.91310737    -155.20758750
C        7.75945965       9.42321737      11.38144974    -155.80732323
C       10.37529257       9.22881421      10.90270521    -155.14295830
C        5.10839408       6.35063552      12.79880567    -155.55509117
C        5.59687507       0.79797133      10.38974844    -156.48614638
C        6.05166820      13.66872332       4.56605787    -156.93541826
C        8.38632020       3.40821323       1.36448286    -156.19861409
C        5.38808690       2.00283300       3.63053607    -155.76678952
C        3.80713866       8.56051348       3.63631842    -156.77604674
C        1.95501523       2.54718169      14.16874066    -155.77223854
C        6.89334021       5.59418231       3.35041808    -157.04072124
C        1.42150845      10.32679453       8.25919354    -157.03256783
C        7.89133407       7.69523022      13.48803907    -156.19466719
C        9.67088050       1.29178824       1.77856854    -154.79511159
C        5.26389393       6.96655496       4.99528395    -156.63208961
C        6.39234497      11.11000528       8.86448366    -157.32881756
C        4.07168115       3.29914224       2.99535630    -154.06606751
C        9.86799060       8.00369306       1.13908461    -153.28327351
C        6.85170162       4.72571025       5.51776459    -156.05361986
C       10.24350318      14.19850276       7.95481236    -153.58423724
C        1.54887604       4.74584926       9.28147894    -155.16995881
C       10.98029924       9.60010341       0.75317371    -154.92506624
C        9.59569578       2.51571890      10.44499255    -156.02964926
C       10.01287530       0.93138913       0.48206088    -159.19314873
C       11.82861811      13.28321917       2.61289923    -159.23193966
C        2.63326500       8.66601302       3.15479609    -153.10225830
C        7.55186196      13.05631864       4.91024940    -156.15911996
C        8.12377602       1.68287632       7.51885438    -155.39595167
C       10.56833517       5.89679194      13.01517609    -154.45324505
C       12.61361459       2.53672244       0.52055319    -155.87014151
C        1.07300992       9.07501504       0.19415089    -155.66205644
C        7.25167581      12.24883053       3.72550549    -157.07090442
C        0.25923067       7.46736596      10.50532457    -153.35321083
C        5.52863484      13.67321598       5.84273831    -157.62537069
C        2.99980644       7.63495489      13.74508435    -154.24577920
C       11.28750073       3.47955722      11.96461671    -155.78516587
C        7.44259256       5.96343068      11.47548378    -155.73518203
C       13.11894659      13.73536206       2.73658198    -155.53311058
C        0.80412642       4.62515689       4.30828980    -153.22146848
C        1.34697283      12.00006194       1.92994421    -155.83199196
C        6.53578409       0.63037106      12.77510937    -157.00643280
C       11.38679275       5.10897515       0.76366272    -153.73097411
C        3.21203851       4.93340714       7.17280627    -155.80874083
C        4.21061344      13.94949324       5.75519523    -153.84977547
C       12.91059776       1.79539121      13.55249526    -156.64358612
C        1.94631337       2.42527049      12.54489250    -155.41285195
C        9.59566744      11.69920969       5.67686424    -154.22780494
C        9.50130743      10.84825475       6.62159812    -155.60173740
C        9.65927329       0.46042951      13.21815357    -154.84712503
C        1.00125352       3.66884413       2.85040073    -156.85709994
C        7.95576191       8.68065313      12.78782204    -155.51688149
C        5.03543443       6.40777874       0.16415070    -155.60104528
C        2.50442348       7.05630893       5.82159305    -155.12892041
C        6.07075846       5.79324820       8.11537177    -155.61881112
C        7.09961986      10.61606790       7.41073295    -154.06315528
C        4.64942008      10.40220600       8.51161861    -154.59660505
C        6.09271155      12.39849134       6.84797427    -154.63779654
C       10.11009814       8.75320178       6.81724846    -155.72972882
C       11.45866112       1.90826040       5.58256092    -157.77178147
C        6.09279658       0.65238084       3.52142256    -156.75092913
C        2.01487956       9.97380192       0.62504790    -154.77200382
C        5.59713017       7.49847443       0.66795067    -156.41801636
C        8.85919735       0.82705598       4.30297514    -154.68391012
C        3.58806131       8.59831134       0.38802542    -156.78426706
C        0.43220371       2.64254794       2.31473974    -157.77856663
C        8.40638835       6.66198953      10.14228372    -154.55643003
C       10.68408137      12.49105145       2.07834368    -155.03831565
C        5.94832288       1.76392842       9.36596077    -155.74992970
C       10.56208513      12.99699287       3.23403412    -154.04911649
C       12.57265628       1.71249669       6.37212092    -153.03749764
C        3.93340080      13.62177007       6.87835995    -155.73507932
C        2.41659696       9.08323505      11.62452101    -155.75025237
C        2.08748490       5.33114209      10.13814537    -155.75629258
C        6.91309657      13.76590364       9.30895927    -153.70986205
C        0.89046200      11.75730247       9.65163435    -156.71910369
C        3.49127781       2.84212404       6.06158890    -156.80506124
C        3.82260078       6.92229447       5.73681360    -156.56925792
C        2.99701447       0.96709797       3.17679169    -157.92932085
C        7.89594011       1.15607451       6.50488820    -155.55962953
C        8.91894829       6.02101325       0.46729038    -153.56942219
C        9.34419192       8.97536872       3.14323139    -155.77275399
C        0.47254977       4.91956068       1.54881935    -155.84005621
C        1.90826040      10.54215870       6.98482322    -153.78757315
C        7.61086177       0.86285270       2.81786084    -153.80507507
C       13.88804160      11.47477516       4.81916322    -156.41077035
C        6.63602565       2.54762103       6.11969585    -154.00159203
C        8.95384081      13.75623805      13.95976825    -154.41381862
C       14.50292646       5.17107872      12.09975078    -154.25965388
C        8.89526617       4.41126664       1.74704906    -154.86120456
200
Lattice="14.172425494135853 0.0 0.0 0.0 14.172425494135853 0.0 0.0 0.0 14.172425494135853" Properties=species:S:1:pos:R:3:gap17_energy:R:1 anneal_T=4000 density=1.4 run_id=525 time=2 pbc="T T T"
C        6.15128618      11.70109463       5.02017073    -157.29356373
C       13.75263825       2.80545997       0.23164829    -153.09617460
C        3.35911995       5.75693844       9.05351547    -156.52782576
C        5.39793673       0.96114697      10.64797003    -158.22992475
C        4.80910080       5.28574781      10.38441961    -154.44621380
C        3.29898634       6.77378163      11.29326891    -155.41748359
C        9.14315607       2.52997636       2.19586143    -152.93898676
C        0.70467709      11.72375633       5.80107138    -154.01823535
C        8.31557145      13.16795484       9.94012824    -156.96176241
C        3.21242117       0.79318389       4.29703689    -154.86318341
C       11.44508393       6.83975427      10.64913217    -153.49796095
C        7.79405454       1.14502569       8.65739618    -154.88516800
C       13.78848032      10.06633369      12.99782904    -156.92394698
C        2.62490327       2.47663136      -0.03074084    -154.10609871