200
Lattice="11.385853889763778 0.0 0.0 0.0 11.385853889763778 0.0 0.0 0.0 11.385853889763778" Properties=species:S:1:pos:R:3:gap17_energy:R:1 anneal_T=3700 density=2.7 run_id=460 time=0 pbc="T T T"
C        8.53385689       2.19627429       4.35229958    -154.47132214
C        7.70531969       8.78207989      10.88328230    -155.63539717
C        4.87116433       6.82636593       9.12757224    -154.15612356
C        3.56615191       4.24586462       1.66794789    -153.52754270
C        3.23294490       8.44041319       6.60257697    -156.35283636
C        3.82396180       6.68542044       4.51364851    -154.44165192
C        8.43729347       8.83760870       9.08666287    -153.19665857
C        4.55070947       0.05724067       5.93442091    -154.01732746
C        2.42695169       8.50291014       0.08703506    -152.51132671
C        4.91628647       2.42098550       2.65469154    -155.55010765
C        5.05067370       9.66112474       4.35461091    -154.89558457
C       10.95874774       2.68019585       6.06988980    -155.67535867
C        7.69528875       5.73811740       2.72437296    -151.14364389
C        2.02757009       7.45233740       6.77485632    -154.35689051
C        9.01704976       8.74352739       7.35813085    -156.00785865
C        7.63401009       6.99132418       9.21914867    -153.71606126
C       11.38460145       6.68866541       4.90336352    -155.08119698
C        9.77631543      10.74899754       9.69080766    -153.72537836
C        1.81931144       8.63502020       9.18422825    -157.40539723
C        6.25199514       5.50639250       7.66858893    -152.78032277
C        1.91504369       4.31587623       5.11911407    -153.96701895
C        7.90966161       4.70785702       8.72923815    -150.92472555
C        6.90986978      11.15185182       1.97524070    -156.08245355
C        8.42006667       3.71143541       2.40479481    -150.44113722
C        1.65314628      10.26883331       5.48497571    -153.02775461
C        7.52694890       5.05822252       7.58056489    -152.99881241
C        9.52197822       6.21797421       4.59527370    -152.98053957
C        5.03157962       3.38858952       8.81175143    -153.97622689
C        8.71961710       3.23507405       3.83460757    -154.00509973
C       10.33842365       5.54804195       8.54304528    -151.32387317
C        7.93471049      11.10597822       3.03303207    -155.00220012
C        1.19745025       9.71935200       9.34660191    -151.77817629
C        3.31452454       9.68553601       2.25357929    -155.58661711
C        7.37098548       3.03076629       9.62988196    -152.97845455
C        2.14958090       9.10787472       7.64248116    -154.27364111
C        2.87117078       0.40251043       9.79975890    -152.44166080
C        8.55393015       0.07404255      10.25625194    -133.73620373
C        9.32255499       0.46419671       6.21429658    -154.12272424
C        5.90392959       3.39297307       0.24968267    -153.08640225
C        3.23494881       2.59908302       1.31421219    -149.52981822
C       10.28418144       1.62076492       6.77347864    -156.54291280
C        0.58018213      10.36107011       3.30715789    -151.95247678
C        3.95032201       8.85285436       5.68368163    -155.02207411
C       11.30145055       8.96425356       1.18877423    -153.43637692
C        3.50951867       9.68040099       0.94116151    -156.63955190
C        2.84693029       2.19363277       0.60414593    -149.24111836
C        0.54627164       0.00896955       4.36146519    -154.06528174
C        1.07551459       8.46968622       6.60318042    -156.90452301
C        6.53670980      10.65218362       5.82140492    -155.79866873
C        0.63917223       6.48351510       2.04462610    -153.56250499
C        5.44083275       9.46013026       5.50500343    -154.22144601
C        3.31386416      10.71675280       0.80205598    -150.31031157
C        1.69431753      10.17219018       1.62973697    -153.67543309
C       11.31732244      10.75343802       2.63472075    -152.60501836
C       10.65625976       5.01694880      10.86405159    -151.18951307
C        1.09682663      11.07037465       6.61462320    -155.74565204
C        1.05992736       3.68688751       8.69703895    -151.08786457
C        1.93864657      11.31867735       8.82445804    -156.04724668
C        4.41541137       4.12782747       4.43140849    -154.06093701
C        6.49898847       1.47400126       6.96785793    -152.29600350
C        5.38836674       0.30026318      10.99144791    -154.16983355
C        1.90592363       4.83236134      10.30695315    -154.36323210
C        1.57863726       5.68508209       0.63053493    -153.30763260
C        8.01557282       1.96410534       7.72941216    -154.44241808
C        6.69229750       2.00315882      11.21210576    -154.33180411
C        2.23124024       1.09647367       8.05469462    -154.53963570
C        6.31508416       3.58382276      10.66111013    -153.67807981
C        0.86161538       1.69908820       3.86742160    -150.32266929
C        7.09161078      10.19470001       4.72637042    -154.63077983
C        3.88202966       1.05989548       4.47778307    -151.41401782
C        0.60252572       3.09875122       9.90117270    -151.51848865
C        5.28437974       6.23998307       3.22176399    -153.79924007
C        8.00046380       6.14658491      10.65829783    -153.90997384
C        5.84043068       0.09563969       7.96450727    -154.66751994
C        5.04270360       3.86789981      10.11783411    -155.46840791
C        8.78030370       1.62514847       1.34651385    -152.18121170
C       11.35581801       8.82826092       9.17744228    -152.16913299
C        2.47907612      10.86351646       7.06198479    -154.51794212
C        1.38166198       7.34120008       8.84699065    -150.95849506
C        9.21024493       6.51828749       1.24061403    -154.80586484
C        5.48784494       4.84719710       6.01046702    -154.70381115
C        6.43191441       3.37637250       1.19949971    -149.57780398
C        9.56786321       6.51034017       0.14220248    -154.56739727
C        7.94383056       8.01425206       4.61967359    -153.64909096
C        9.86303009      11.08324067       3.30108923    -157.34841657
C       11.06137983       3.66191833       0.81352495    -154.75359046
C        0.12654580       3.90194351       9.45638432    -152.42642191
C        4.52414627       9.02601043       7.04274270    -154.64982319
C        1.60015652       8.87677604      10.93940317    -153.00676749
C        7.02607381       2.21937618       6.37156938    -153.68673862
C        0.05224285       4.33542574      10.91991059    -152.87231385
C        9.46076787       4.22533592       1.98679735    -152.55166776
C        7.79910497       8.36730462       1.52738953    -154.82698544
C        0.31206576       8.42643136       2.01982771    -151.91516093
C        0.53394417      10.02285332       6.30786553    -154.56558021
C        7.30964988       5.27759377      10.24097212    -154.68322938
C        1.37509235       2.80513282       5.13607899    -153.09550194
C        5.19723241       7.40214856       3.52704150    -156.52258575
C       10.73807850       6.13836432       3.38532178    -152.85054209
C        1.38243622       2.12547705      11.34684595    -142.65344930
C       11.09842939       4.41878158       5.97633223    -153.78182124
C       10.31855533       3.61878871      10.21114119    -151.70622617
C        8.88885643       5.65764218       3.30302483    -155.83357956
C        0.26060056       2.38720367       4.11575846    -133.33584856
C        8.23411290       5.28465300       4.27381689    -151.32067558
C        1.23505773       0.56768501       3.50297181    -156.03096575
C       10.59892060       4.22762448       9.01474982    -154.29592864
C        7.00876731       2.39077883       4.38472649    -155.28341405
C        8.45354108      10.61612462       7.66116535    -154.62235146
C        4.56103644       9.97669507       0.16690523    -153.59376831
C        6.46870210       0.47521480       8.97932843    -154.91954808
C        2.14502656       2.63048521       2.55218469    -153.49396527
C        8.68884114       4.36310475       1.33435376    -149.25094024
C        1.95127348       7.20302136       9.65913222    -152.92147257
C        5.54570785       1.69007061       0.53202110    -155.33082274
C        5.42042930       1.96362713       3.68274305    -154.39582832
C        7.58459548       9.55256063       9.13707943    -153.39258836
C        6.48695362       4.49184460       8.28364137    -152.30335283
C        1.67349280       6.23209267       2.45762518    -156.00162684
C       10.86225263      10.02630323      11.07693290    -154.25995277
C        1.71094088       1.78846716       1.35189936    -153.54244525
C        5.92203310       8.72912429       4.05540205    -155.84465883
C        9.77404964       3.51228544       0.81419216    -154.37880996
C        3.46244955       5.39832936       7.24350946    -153.43292562
C        2.76186658       2.69989338       7.83667829    -154.25403339
C        7.42714051       6.14051625       6.11732326    -153.04983511
C        3.10421643       5.46971867       3.74239354    -154.93124821
C        4.01329716       4.14117169       0.07662133    -154.73080178
C        4.45385001      10.25241491       7.16462826    -155.07406052
C        2.77177227       9.42456086       8.56498582    -153.57906381
C        7.33915063       3.88970372       8.23841676    -150.82493374
C        9.81392290       9.18541238       5.09064943    -153.05643164
C        9.40933797       0.47806354       4.10326818    -153.80497951
C        8.88029427       4.27588911       3.20892075    -155.25981880
C        5.48317674       5.94348405       0.87191844    -152.98141294
C        0.47956192       3.53443092       1.63992731    -154.08284600
C        8.38047805       0.61129283      10.00209691    -135.03043827
C        4.34598043      10.21108426       3.70495686    -151.75164692
C        7.86424344       0.93914052       8.78374223    -155.78505816
C        3.85295018       3.68739987       7.09597156    -155.35078653
C        4.71323115       6.19150210      10.32330323    -155.32798752
C        8.21166000      10.42147207      10.00905367    -155.51851314
C        3.69239826       9.40643458       4.02365829    -153.40828935
C        5.37645714       1.30872420      10.11310898    -155.21570248
C        8.58016316       2.18577653       9.52555338    -154.20182428
C        3.14219964       0.03689916       4.38269981    -154.04427865
C        1.91745750       7.62469646      11.17070679    -151.79670942
C        1.41346267       2.60676848       0.55058004    -143.92272853
C        9.89199570      10.22166172       0.83149525    -155.16857092
C        0.73307479       5.02346151       2.11356744    -155.80411442
C        0.91270371      10.98935291       0.23978381    -154.08716527
C        1.08224591       0.57489226       6.03618767    -150.77289445
C        5.65314477       2.52137457       1.44568464    -156.27048426
C        3.92956560      10.50662687       8.13134419    -152.65205604
C        6.99472855       9.04150657       2.94062448    -154.45893412
C        9.78207667      10.95151772       1.86295341    -155.03341531
C        0.37437598       2.96368084       4.43590590    -138.70448950
C       10.33117086       2.52924220       8.73610381    -145.22707054
C       10.05805838       8.59227771       7.09353499    -153.09047889
C       10.58293486       0.57062370      11.05585769    -153.42927294
C        7.68285540       8.12152958       7.33505172    -153.50557405
C        0.05968112       6.35945483      10.35538857    -153.61672837
C        9.98282066       1.96084899       8.32978823    -144.26286123
C        5.96609635       4.76328336       3.94649636    -154.67373975
C        3.89776491       1.69380517       1.20718516    -152.71872006
C        1.14758021       5.05010441       9.32690439    -155.02481328
C       11.19982042       3.86571373       4.72068888    -152.30770736
C        9.97060364       5.29201964       3.09213604    -154.01407542
C        4.73124357       1.38975733       4.31835835    -150.18263119
C        9.21764573       3.16904748       7.96661365    -153.18647266
C        2.57538906       8.81296971       3.18372385    -155.21590104
C        6.64437444       5.77043045       9.43606057    -155.08628737
C        2.08845025       7.46031889       2.39891971    -153.89629534
C        0.99366624       1.67727291       9.82924826    -153.61061250
C       10.97449437       3.78889337       7.68360687    -153.02043078
C        4.41494455       1.38638711       8.18522205    -153.86951928
C        1.31644381       5.73684218       4.02939676    -154.46829001
C        4.88284621       3.38424012       6.88406944    -153.83788874
C       11.22583710       5.10880987       3.14964599    -153.64080347
C        6.96533027       2.16506566       9.31104389    -150.84739905
C        0.90889628       9.60803251      10.34672393    -152.63835618
C        6.87614488       9.09875465       0.44604424    -155.17112038
C        3.59233937       1.36577872       2.29298573    -152.85855399
C        3.24642575       5.53329727       9.47063941    -154.22730703
C        4.42884667       8.24816305      10.75745723    -153.59845569
C        6.67626622       0.46549470       7.02027841    -153.57499976
C        5.31599825       5.06712626       8.33922711    -152.49218078
C        8.18903631       1.08997918       0.73798892    -153.52167782
C       10.24568587       8.87936063       0.59606425    -155.71348436
C        6.75443010       3.63663035       5.61919216    -154.92606727
C       10.05204665       8.16453395      11.24642272    -150.87063088
C       11.28674003       7.89332291       6.30522401    -155.61868419
C        5.45496260       7.48811176       5.05556962    -153.97442646
C        6.05626093       5.42247876      10.92941778    -155.77511019
C        3.53621850       8.23166494       0.46021052    -154.95636339
C       10.15352877       7.40233073       1.64932064    -154.17227234
C        8.23666333       8.56548679       5.76334845    -156.88362776
C        5.61718824      10.71239202       2.53013029    -154.29591831
C        0.86625626       6.29826725       6.21788312    -154.58754669
C        2.49748705       0.19662687       3.49987486    -153.55550463
200
Lattice="11.385853889763778 0.0 0.0 0.0 11.385853889763778 0.0 0.0 0.0 11.385853889763778" Properties=species:S:1:pos:R:3:gap17_energy:R:1 anneal_T=3700 density=2.7 run_id=460 time=1 pbc="T T T"
C        0.40203222       3.35976054       4.95881263    -156.32636882
C        6.75601274       8.81282170       8.69265540    -156.56883058
C        3.83416353       4.10008014       0.59073795    -154.10856489
C        5.89722332       6.61107082       8.87107173    -155.60301855
C        3.73757733       2.87435881       7.40558709    -157.45548818
C        2.16734283       0.09547505       3.03248555    -155.13805619
C       10.91011876       8.33745091       8.30021917    -155.23281683
C        2.43197285      11.93988954       5.90653695    -155.36048121
C        2.14179298       6.12413200      11.58487862    -154.47083607
C        3.54275398       0.76267231       7.02848761    -156.02569330
C       10.84528770       4.56668382       1.79738228    -155.14534434
C        1.70776422      10.52427494       6.33294856    -155.25253989
C        0.72158646       7.33690762      11.04216050    -155.25017601
C        8.18691854      10.08647747       8.10221917    -154.78066239
C        5.55060377       5.50808899      10.10157511    -155.12272248
C        5.33113005       7.85044378       4.67390441    -155.73774788
C        8.10079594       5.28978802       0.70130256    -155.00640429
C        9.37203791       2.80799067       1.77086463    -155.89504876
C       11.27936200       4.79037031      10.68409817    -156.65398523
C       10.65181928       2.50984070      10.30365125    -155.32543852
C        9.05475971       7.79144229       5.92550578    -156.50565454
C        7.08159123       2.14631316       9.33411163    -155.54361745
C        0.39862216       5.54820136       4.04111281    -154.81675920
C        1.24933559       6.61642217       5.78408209    -154.79517921
C        6.99913487       7.10961182       0.26718842    -155.53313487
C        4.14995018       5.66118318       9.98628196    -156.10996870
C        2.63383265       6.63407024       7.31642447    -156.39077177
C        4.60856099       7.59544620      10.72553129    -156.31412013
C       10.12739823       7.66768944       2.46128004    -155.98685126
C        4.46441608       6.57151636       8.75126977    -156.56450618
C        3.43544231       6.58695558       1.53645267    -155.99505985
C        8.28718237       2.57064116       7.80548105    -155.69374832
C        2.71915824      10.29773061       8.35191095    -155.71699129
C       10.41467471       8.81829829      10.19039616    -155.63989052
C        7.39639870       9.53080226       7.27675615    -156.93080149
C        9.26869990      10.76682779       0.15055856    -154.55349176
C       11.04373175      10.10738190       0.86523950    -154.49132686
C       10.62119133       2.86880252       3.63089188    -155.36494434
C       10.66380858       1.08359171       5.70358410    -155.33019282
C        1.16309913       4.41265599      10.19883308    -156.25208818
C        9.77971980       6.44910705       6.37877663    -156.53254062
C        2.50981793       5.26250751       8.19648266    -155.24682267
C        2.33324611       0.27052561       7.83330807    -156.71849328
C        1.53490419       8.25589404       7.03622999    -154.58767005
C       10.18934866       9.57750703       3.73655260    -154.87043926
C        9.40252923      10.46453336       3.44175007    -156.21047909
C       10.66631347       1.40594801       3.39843828    -154.84648818
C        1.00443384      10.32707195       1.64444749    -156.77541207
C        4.93941113      10.32407747       0.56585986    -154.38734944
C        0.77166258       0.45875085      11.18879892    -157.20087931
C       10.17749599       8.62430612       6.10541366    -156.95741069
C       11.19407057       3.12924254       6.28704080    -155.88941362
C       11.42604595      11.29798926       6.66188588    -155.53302526
C        6.87944678       9.93156154      11.31099190    -156.76644792
C        8.26996696       4.03645599       7.56004758    -155.91284041
C        0.57698498       9.20611186       8.71682756    -154.84813420
C        7.60215247       7.82374396       5.81013292    -154.80369721
C        7.10731187       3.49266761       3.66001689    -155.83325592
C        4.52407796       3.84280539       7.66491130    -156.82824804
C        4.42159389       7.07312015       3.70001540    -155.45257317
C        4.57995973      10.57121882       7.19556363    -155.44069875
C        3.39499976      10.41114510       2.38671408    -157.52921458
C        6.30735316       9.26307529       1.09804378    -156.15135703
C       11.21950656      10.12584975       9.55612440    -156.44826812
C       10.78501099       7.70523999       1.01285482    -155.02285366
C        7.44702021       1.42861725       4.01561988    -154.70662415
C        3.78141286       7.05300135       7.72264896    -157.68820771
C        6.27652027       3.70430786       8.78415212    -155.56836871
C        9.01720916       6.10095040       3.72328808    -156.18298638
C        5.20529359       5.55462298       5.77142102    -155.31602080
C        8.88743320       8.08507208      11.50335590    -155.29047573
C        1.76539942       1.66439551       6.06106576    -156.93820280
C        5.19268945      10.39073026      10.79633992    -156.53674054
C        8.26648289       3.51676008       2.60369430    -157.08275155
C        8.73110543       4.10249394       5.16244863    -155.42318924
C        7.37450371       0.60737154       6.53107381    -156.35457944
C       10.15246988       0.35478207       2.98546198    -156.89194653
C        9.69668276       4.84268831       4.16558296    -157.11875453
C        1.41939470       8.15625643       3.75941539    -155.77807733
C        2.70534720       4.20723241       4.66140274    -154.74319231
C        3.97571246       3.51698779      10.71745872    -156.34390895
C        8.60821790       9.16497477      10.77186033    -156.64511918
C        9.66677213       7.21367852      10.76102100    -156.17268738
C        2.58847141       7.77168783       1.58829246    -154.88826188
C        5.93777973       0.62977890       5.82773545    -155.30947391
C       10.31191738       4.80494420       0.13899850    -157.26151469
C        9.12360997       5.16569359      10.81074302    -156.79213696
C        2.68739171       2.74329625       2.41925485    -154.42227920
C        8.58784861       1.95780896       0.78428494    -154.03962625
C        4.20547899       2.33177733       0.12934899    -157.34039272
C        7.82902699      10.30917339       0.69359434    -155.86205211
C       -0.11448362       2.44227705       0.97594985    -155.72034254
C        8.11840986       5.79479618       8.31702469    -154.00559277
C        3.84187175       1.00615311      11.44198615    -155.17060737
C        5.52338019      10.61779834       6.06383252    -157.09032160
C        5.78436674       0.63870883       4.60353983    -155.74830617
C        1.18116848       2.46837342       2.22430626    -156.28132597
C        9.50734740       6.19310751       9.83025022    -156.28804259
C       -0.11817492       8.48013843      11.30876027    -156.04526024
C        3.34637077       3.49469429       9.69161606    -154.41405706
C        7.81078686      10.59848794       6.46476259    -157.20318570
C        0.98784579       2.12964427       9.28309162    -155.90873778
C        8.66526103      10.24240674       5.22583367    -155.58692723
C       11.01074693       1.19576515      11.54536970    -156.89068513
C        7.06637973       4.50538238       7.74998640    -156.22662539
C        7.95322389       9.45753429       4.25093132    -155.65209612
C        2.68658331       2.66128394       6.73728301    -155.00391404
C       10.51686275      11.17611508      10.04127563    -155.27365223
C        0.56657148       3.52701873       7.50730831    -155.65878139
C        8.28025977      10.35774544       9.99913659    -154.08222657
C        3.16951430       9.27577052       7.05009796    -156.11330363
C        2.30899424       9.69793521       1.95512190    -155.25286182
C        0.14743770       6.77820377       9.40848403    -154.76751356
C        0.57216762       7.17328151       4.34807543    -156.89564969
C        2.85395536       5.57147404       2.56798826    -156.80157255
C       10.85252911       7.39958674       6.77657559    -155.61148010
C        3.91450211       4.61185150       8.78853567    -156.85452471
C        9.81088288       4.78131855       5.38912959    -154.02605935
C        6.00305483       4.08314938       5.62183367    -156.72730161
C        3.56242874       0.59253350       4.15064472    -153.61741451
C        9.93168679       1.06012547      10.27844297    -155.15792122
C        8.02191474       6.90857179       4.16907842    -154.67302509
C        1.95070419       0.39400292       0.67991879    -155.32656697
C        5.29562896       3.02475456       2.27361839    -155.19466360
C       10.17964791       3.64015996       1.05663229    -157.08750459
C        7.40556432       3.79774018       4.91955421    -157.12564694
C        0.52345666       1.80313214       7.95734557    -156.38647986
C        1.19558297       6.17455995       1.63331213    -155.81433519
C        0.82744758       7.50324356       1.21012271    -156.81599940
C        7.00269865       8.20182262       1.41987291    -155.18124029
C        1.68847659       3.29474731       5.06365357    -156.46396306
C        4.54713431       9.83972325       4.86000619    -155.33566381
C        4.62871395       9.92286275       1.86485485    -155.76403372
C        2.18119942       5.65556996       6.51793453    -156.18348828
C        1.50916078       4.73286036       3.90414098    -157.85760127
C        9.79123089       5.65741447       7.70183562    -154.88846081
C        8.46479030       4.75190889       9.40803998    -155.57938466
C        5.82421723       7.35859767       2.86460114    -155.06449749
C        1.20945094       0.70898232       2.07504910    -157.08641975
C        2.06515479       9.21218052       4.75774984    -155.92356726
C        5.71767979       5.71173638       2.64330568    -154.84037172
C        7.75188783       9.55274280       2.22176721    -155.43958251
C        5.34643264       4.36958330       0.41582049    -153.53044329
C        3.60346335       5.60338859       5.65316754    -155.40847716
C       10.85469242      11.44289702       8.09441986    -155.83973986
C        5.05823391       4.08272810       4.29436835    -154.63240858
C        9.35810163      -0.17850514       7.82902699    -156.50780095
C        7.48849888       4.14249245       1.50815882    -155.39807629
C        6.74962527       1.44536584       1.92933294    -154.71082189
C        5.51798330       4.50607692       7.08850244    -156.61699821
C        4.32589578       9.89645896       3.33106819    -155.54779566
C        6.95618743       7.40490394       9.11880514    -155.42554310
C        3.84520780      11.15549529      10.51578109    -155.66598151
C        8.79968242       7.76325092       2.65082035    -155.01512283
C        8.54578927       0.96390362       2.16688740    -154.81276325
C        1.47610764       0.85518807       9.84324148    -155.86005682
C        2.10863737       6.95878341       9.85508276    -153.81572736
C        3.41671258       6.78506944      11.20547919    -155.72131549
C       10.82644412       9.81180513       5.59116018    -155.44246552
C        5.84224103       7.80345437       5.78619986    -155.95320149
C        8.70114924       1.06838705       5.36608462    -155.37548886
C       10.55437914       8.11901331       4.36271763    -155.62112521
C        6.23397134      10.09347977       9.75710749    -154.95009488
C        4.90496893       5.45498537      -0.09651652    -157.27843572
C        8.57402618       0.96442281       7.65662239    -155.94936924
C        7.33342355       2.77713501      10.61733152    -153.97796093
C        6.20517651       9.21078006       6.55251337    -155.90865790
C        4.14515674       2.30613639       1.67405071    -156.34050274
C        5.82789486       3.30221643       9.82941905    -154.90445007
C        1.37256469       3.71701447       8.53649841    -155.32872476
C        5.51190325       4.41099366       2.68820010    -156.53918142
C        5.26664058       8.91102469       8.21929991    -156.30175894
C        1.15050638       4.03563621       2.60816894    -156.16807536
C       11.35922238       0.09919743       1.86297619    -156.50209439
C        3.56362425      10.20982043       9.27778581    -156.19085097
C        1.02208419       0.33919142       8.42122803    -156.31813895
C        8.50647391       2.61773305       9.18877121    -156.56165303
C        5.76473753       1.13187571       2.68215421    -155.51916129
C        0.97281419       9.62061387       5.23282459    -156.26839293
C        3.14387336       9.77275165       5.82314696    -156.49165028
C        4.40386611       8.06060388       7.12529014    -156.12322132
C        4.74833373       0.31886198       3.70304403    -157.01118403
C        3.20781632       5.70843448       3.73967232    -154.70648942
C        9.77838765       4.57042977       8.66831244    -156.83237679
C        9.75568426       3.36270947       9.27573636    -156.02992165
C        8.12964769       2.32827049       3.21887198    -156.66204863
C        1.63209384       4.92837824       1.80711719    -155.10215634
C       10.50020524       4.10562505       3.11523794    -156.68139390
C        4.54325173      10.03563963       8.55703849    -156.96830284
C        4.43713558       9.11872543      11.02908954    -154.65968551
C        2.09108038       3.87162298      10.81070887    -154.90382147
C        6.09623666       7.21747001      10.56700605    -157.50462269
C        3.50774248       1.58070948       8.17811727    -154.42586925
C        5.62975823       6.64905403       0.74269242    -154.38148422
C        6.94452832       9.91009921       3.49518388    -156.68005559
C        6.05521343      10.59900030       4.14787796    -155.93678576
C        0.48972949       1.32156745       6.61271038    -157.57824718
C        1.30239367       7.19122562       2.45217135    -155.25957437
C       10.86126206       5.45874270       9.52784194    -157.44170415
C        9.85167839       2.08094697       5.69969014    -155.32184467
200
Lattice="11.385853889763778 0.0 0.0 0.0 11.385853889763778 0.0 0.0 0.0 11.385853889763778" Properties=species:S:1:pos:R:3:gap17_energy:R:1 anneal_T=3700 density=2.7 run_id=460 time=2 pbc="T T T"
C       10.26196764       7.49617294       2.05976928    -156.69132258
C        7.83943366      10.97968632       5.42157927    -155.20671070
C        0.60223994       5.41333592       6.27809152    -154.74874194
C        6.30056720       0.51644298       7.81821043    -156.27632286
C        8.08772498       1.02618310       9.20230899    -155.54095362
C        9.94258305      10.04441813       9.35548288    -153.80044954
C        7.56413510       8.45066046       5.70960722    -155.64113258
C        5.00135018       2.61455640       9.84014452    -153.05552097
C        0.78666914       8.28753533       3.92872304    -154.76585138
C        2.68299677      11.26203273       7.16055213    -156.76433350
C        9.63862630       5.46664448       1.93873766    -156.02919726
C        2.36240528       8.00742055       5.88414098    -156.06503654
C        7.28583068      10.42403388       2.42481115    -156.37526788
C       10.41893302       9.28739547       0.69044843    -154.73081922