200
Lattice="10.758957740055605 0.0 0.0 0.0 10.758957740055605 0.0 0.0 0.0 10.758957740055605" Properties=species:S:1:pos:R:3:gap17_energy:R:1 anneal_T=3700 density=3.2 run_id=465 time=0 pbc="T T T"
C        8.10891886       7.62377594       1.00788625    -149.88170832
C        5.17033549       1.32936606       6.56972085    -154.91945373
C        7.28241573       2.47563618       0.90119827    -156.48525579
C        0.20497966      10.11136531       5.73833315    -155.11599733
C       10.68395705       3.80845586       7.65480477    -151.79538633
C        0.15784574      10.43806107       0.14881360    -153.89417824
C        2.63927992       8.50362198       3.58128047    -153.70097206
C        1.26410222       2.43396673       0.19648331    -152.04515493
C        0.89279660       6.47645144      10.62381447    -155.50886214
C        2.44171318       3.22061869       0.21048610    -156.13477902
C        6.64536708       8.58993034       3.46526663    -153.55014412
C        3.33856914       5.39890955       0.85597084    -154.75367876
C       10.14837613       6.53397959       1.01336471    -152.38892004
C        0.91146770       7.62078495       9.70265403    -145.75854518
C        0.15614153       2.66956639       5.31378467    -155.22395382
C        6.44202278       4.06016168      10.03443877    -154.63741740
C       10.39233550       6.56410467       5.39993165    -150.53658892
C        7.87682662       7.72900930       5.76208893    -149.06677880
C        1.04575240       7.92028205       3.03526336    -153.27394767
C        8.54448450       6.53826165       9.14858922    -153.54846894
C        6.81680031      10.39011915       0.68347355    -155.29151468
C        7.79085179       8.56824028       7.89392261    -152.21848698
C        9.68247022       1.26585593       9.19818802    -151.34252925
C        8.45393712       8.12024804       4.78698307    -152.41383733
C        0.91254682       5.71588996       7.77852203    -151.31843150
C        4.76743404       8.97527317       6.82290064    -151.16292150
C        8.59445986       0.19103390       4.75916040    -147.84158030
C        6.55905872       7.10193421       8.81229648    -154.55992581
C        7.27622932       4.55693503       7.69215987    -151.99878110
C        8.94032808       5.74470245       6.73662456    -154.51445895
C        4.21035673       1.83871664       4.70756044    -152.95867721
C        0.24975522      10.62067286       8.33427599    -155.39461475
C        3.27796393       5.97796741      10.59093510    -152.93462639
C        9.03119823       1.08930144      10.09162263    -152.35292830
C        3.34397014       6.71704326       6.94824250    -154.28618064
C        9.22903395       4.64909626       6.25381633    -150.67581672
C        9.25694269       7.18212072       8.30204215    -154.39379375
C        5.14768788       9.88247925       3.58119440    -152.71877902
C        8.96211497       3.63163239       4.29030654    -153.65187544
C        3.78783094       8.67492611       5.39552048    -154.35492908
C        0.78039454       8.93366828       7.90602643    -153.00608628
C        8.70580432       1.28399553       8.71365836    -152.08761764
C        0.10113678       7.54087817       2.70799739    -153.73358909
C        7.27277570       4.50609896       2.67929249    -153.51149143
C        8.39022257       8.14515503       9.53700911    -152.53046320
C        7.66543462      10.26568105       4.76862829    -152.84560841
C        8.22304988       5.24052693       7.58427980    -155.44522661
C       10.37815519       6.10344914      10.25159757    -155.67567424
C        8.42314498       0.57669950       3.22982835    -143.91653695
C        7.33961034       6.81804835       4.52342088    -152.55757179
C        7.80595737       9.20209352       5.20642103    -146.75758426
C        5.28069012       8.08125758       7.49368938    -155.14501000
C        3.15378404       2.65384755       8.35710650    -155.49794074
C        6.12994845       9.43469143       8.70268422    -153.55597269
C        4.68755954       6.23918415       1.29858468    -154.91295089
C        4.58767338       6.22656389       4.39018195    -155.44606992
C        3.44199500       4.37258029      10.34523278    -153.64629093
C       10.50558429       4.36337062       4.74345232    -151.89068068
C        2.06062014       2.33300467       7.58368806    -155.96677804
C        9.24529073       8.23366897       7.33309042    -155.49697983
C        3.00233019      10.57775537       6.07578786    -156.24992220
C        6.69286788       9.78700426       2.08223489    -154.98912692
C        0.77110311       0.38808529       3.30845482    -151.76884537
C        2.36794977       7.21070727       7.17186743    -153.93589215
C        5.91753435       0.81941944       3.99314413    -155.73333308
C        4.26017070       3.68021984       2.96047785    -152.67450670
C        0.50580873       7.15242600       6.45473987    -150.40191453
C        1.44652035       0.79958530       7.41745140    -154.69516686
C        7.07945875       7.93791598       4.59355853    -153.37778299
C        4.98089176       8.11048967       6.27838979    -152.72180891
C        5.74233548       6.68704728       1.22979191    -153.97600483
C        3.98694697       7.90512268       9.39400105    -155.23148702
C        3.27482232       6.89656722       5.17343407    -154.94008013
C        7.38971481       7.12904678      10.12312486    -153.08038372
C       10.03744052       3.01762943       7.32855014    -153.79864885
C        6.00166940       5.67884687       2.06369720    -153.89999232
C        8.34603553       5.49891406       0.78177169    -154.40076518
C        9.23176672       7.03196871      10.47599715    -151.01439157
C       10.71282333       9.16006903       8.62740379    -154.65160391
C        0.58991580       3.13804369       0.71666816    -153.48723524
C        5.16581673       4.07539636       9.14215537    -154.59430389
C        8.14781249       7.82636711       2.98130719    -153.83481919
C        8.77429584       0.97330588       7.69490341    -152.50488998
C        2.34480725       0.99508201       3.07679294    -155.83833450
C        8.37170640       1.91147947       4.39985425    -152.67600297
C        7.34693720       0.57990352       8.18008936    -154.14583710
C        1.40732547       7.88063529       5.72902665    -146.28330084
C        3.79304903       4.53018826       5.05520388    -154.61723057
C        9.55102804      10.61569146       7.54251353    -152.02069346
C        5.23624487       2.49937044       6.49101907    -153.39323717
C        0.56787716       5.19687784       5.91503827    -152.56151242
C        3.00077014      10.46981075       2.46113310    -154.41641152
C        5.88418158       3.45663794       2.68879265    -151.73012074
C        4.97482371       4.91031300       5.40812997    -156.23719175
C        1.46632759       2.81977220       3.71716610    -154.76854403
C        4.26727161      10.68295646       1.31059168    -153.47204986
C       10.74620838       8.26400923       1.69691357    -154.19235393
C        3.56566922       5.30714640       9.71822224    -152.07444775
C        0.27156900       7.64267943       5.04241148    -105.49899817
C        2.11652368       9.88030594       4.80075453    -152.61780842
C        6.33298074      10.21570569       5.20926140    -152.33059812
C        7.80448339       2.87137216       6.21655806    -153.59249582
C        1.04206316       2.40941479       1.48546778    -150.18726762
C        5.09231153      10.08175666      10.03290024    -153.54091625
C        1.51548527       9.41762772       4.02646462    -153.72063778
C        6.51475333       0.90809692       8.79147790    -154.87739322
C       10.39415376       3.33848307       3.44771877    -153.70152309
C        7.09432763       8.26351432       8.71966185    -154.25387124
C        2.33282177       7.74722422       1.40993989    -154.68164667
C        5.47068255       6.27210656       9.79135088    -154.36241455
C        9.80231425       7.78245980       5.24801517    -150.65463613
C        9.01622177       5.89758724       2.44282135    -151.92925050
C        7.29349745      10.13772476       6.87738400    -154.02822100
C        0.02485782       6.14784060       7.29788711    -153.59054930
C        4.46399916       7.09129360       7.60966018    -155.41672944
C        0.64199777       7.31223956       4.49833099    -133.92960623
C        2.93905676       8.70885986      10.66540860    -154.59044712
C        3.67635738       6.53546433       2.50027419    -154.84465465
C       10.36452359       3.39603273       0.14211722    -149.35843307
C        3.67715354       8.15391282       3.19941278    -155.93693838
C        3.08180661       4.35449448       2.16883374    -154.66044782
C        9.15051508       5.19353180       3.30053622    -153.71321069
C        0.49025666       7.61880530       5.46952059    -112.51209930
C        8.53179969       6.70096937       1.14214944    -153.96407044
C        3.30830419       0.66289059       5.00372227    -155.86335538
C        2.66689817       5.79813143       1.68856462    -152.81777761
C        9.82357395       9.53555666       5.07723823    -153.52027659
C        3.28293457       3.44357657       1.39642664    -153.83280037
C       10.73277044       4.34037873       0.40288316    -149.97903134
C        2.58671166       5.06457494       6.43584714    -154.81497541
C        5.24823034       5.38489063       7.04010248    -153.99511842
C        9.84318753      10.09901403       1.35940507    -154.78244905
C        9.63176326       9.27844984       2.68820090    -154.80593303
C        8.79413536      10.11044004       8.42470503    -154.82918338
C        6.52622238       2.06596734       1.98482328    -155.57191897
C        9.63379670       5.16282574      10.01582577    -152.49951891
C        2.12119307       1.58831265       4.56188415    -154.74431467
C        9.32546649       7.86957509      10.08304774    -146.48259094
C        1.07493177       0.98225949       9.06630471    -154.43370278
C       10.15038805       6.58412709       8.80292543    -153.30141699
C        0.68702508       1.94444491       6.93834426    -155.42965781
C        6.19856908       5.60423350       5.60694475    -154.68021038
C        1.60158921       4.07962463       1.83579020    -153.90303752
C        8.25347622       5.04113117       2.26413658    -155.21037076
C        3.51737226      10.65486482       7.19914139    -152.97357402
C        5.33582978       3.97080853       1.95534374    -152.24351474
C        8.70581508       6.71025435       4.02672284    -154.06422505
C        7.75663831       7.51776793       6.67525546    -148.79797046
C       10.21371528       5.19112180       6.52631921    -153.08826073
C        9.65913404       9.57820516       7.69202001    -153.90801423
C        6.28889053       6.15329539       0.37196407    -155.04580782
C        8.40439212       3.05409154       0.60926256    -154.91736387
C        8.40517752       2.74170520      10.08642605    -150.35539692
C        7.87093071       2.54822686       9.41048377    -148.28776020
C        3.94921530       2.05896326       3.64311220    -153.53719828
C        3.15232082       4.31198584       7.09268151    -153.16717732
C        6.58974327       1.88662628       3.89637806    -155.55737244
C        2.98941944       8.26793625       8.60496061    -154.41697708
C       10.53785040       0.71038278      10.61163533    -154.74254716
C        4.82414451       7.06985100       3.77653403    -151.29905140
C        0.84620279       2.13842892       8.88114305    -155.32591625
C        1.88614212       4.19540178       4.01460825    -154.60196333
C        9.34616672       9.82471440       9.77595481    -153.41801829
C        9.32719868       6.76681419       5.79815295    -151.24099240
C        4.06693982       5.33582978       3.55906322    -153.86197877
C        8.00529934       0.21503714       3.97623105    -145.72306361
C        1.96745833       6.21485814      10.35230141    -153.77751083
C        1.40034290       3.53529668       6.00825388    -152.41173407
C        9.41881120       5.53770010       8.22980651    -153.53778877
C        7.70658763       4.85102038       4.75221012    -153.55585081
C        3.79678239       4.04799330       8.56526005    -156.58674798
C        9.43045240       2.11253211       6.59053943    -153.54048363
C        8.64373589       9.50622774       5.32454363    -147.05105917
C        0.85266246       1.50442506       3.59279255    -155.81445251
C        4.76141978       9.01666288       3.08366791    -154.65785788
C        1.97304222       6.53616366       8.07288711    -153.64323940
C       10.25849406       8.46218924       6.84257877    -153.44195777
C        0.46606299       8.10291536      10.15267971    -144.62610432
C        2.20103530       9.01571609       6.92669231    -153.80954977
C        6.13460708       1.95450454       9.87893955    -154.05722211
C        0.37815262       4.12718998       1.30111304    -149.16056482
C        7.63207109       5.23342602      10.74496034    -152.80927529
C        4.23167022       2.59936419       2.69816370    -153.87557317
C        5.57127881       0.09979966       8.48991507    -154.22734137
C        5.18394557       7.72176852       9.30829519    -154.71427599
C        9.47936262       2.49123666       8.23615429    -155.42871821
C       10.38620289       3.01972743       9.12344554    -154.49788032
C        7.27675651       9.80832851       8.66223054    -154.28706149
C        3.59331974       2.12722885      10.08406984    -153.59653073
C        7.56906664      10.09757233       3.43005256    -152.03419383
C        5.52773731       6.51556025       7.48578154    -154.67859659
C        2.11471618       4.18931221       5.44844379    -155.99752640
C        3.41969168       1.37092791       2.33774937    -154.80752956
C        0.95076910      10.65860894       4.46862551    -157.33310954
C        2.44236948       8.92009048       0.93007101    -155.81777399
C        2.85553497       6.15006770       4.28168862    -154.45366370
C        9.88246849       4.58690949       3.92930047    -153.53837741
C       10.55872278       1.80295386       4.40990312    -154.58556819
C        4.91742467       3.30169819       1.21233012    -151.07548325
C        7.38736936      10.07505383      10.52298152    -154.69163073
200
Lattice="10.758957740055605 0.0 0.0 0.0 10.758957740055605 0.0 0.0 0.0 10.758957740055605" Properties=species:S:1:pos:R:3:gap17_energy:R:1 anneal_T=3700 density=3.2 run_id=465 time=1 pbc="T T T"
C        6.49282658       9.83335385       6.23368632    -156.04755990
C        2.21517257      10.51406234      10.70289281    -155.91342158
C        7.21846448       9.67529400       0.94800512    -155.76173069
C        1.68182951       3.60950121       8.62083007    -154.85252568
C        4.06829545       5.05461214       3.99310109    -156.46126317
C        5.37192608       2.17715041       1.11150792    -154.41745329
C        0.61750285       5.00391593       7.86513164    -156.88442070
C        1.68862918       8.62161547       2.24771842    -155.77737155
C        3.76884138       3.67065513       9.17513157    -154.88204056
C        4.93186319       5.98237858       9.76915515    -155.50878508
C        8.29866384       7.86518543       2.50500813    -154.85982186
C        1.73743181       6.96260571       3.97004465    -156.23008725
C        5.27993699       7.74910704       7.41042580    -154.88562477
C        6.99012712       0.20183805       8.50846351    -156.37564111
C        0.27713139      10.32963229       8.14282033    -155.72875457
C        4.51349036      10.13088206       4.90253427    -154.68660054
C        2.07951287       0.35691336       8.67608808    -154.96698262
C        7.11486648       4.42454606       5.16450414    -156.19092385
C        6.33048466       6.91605170       0.60740772    -156.50561028
C        8.59112459       7.51313082       8.09808459    -156.18727620
C        4.71429555       2.60415193       8.04602199    -155.63828995
C        8.91843360       7.05463783       0.54865413    -154.35643241
C        4.25453301       3.08088134       5.15810256    -155.04871432
C        6.99098784       5.18474173       0.42689177    -156.01651723
C        6.21430944       0.98388517       6.83357353    -154.18270153
C        9.91270116       8.56020334       1.17186568    -154.47396686
C        3.24149106      10.59263501       1.04788160    -155.27598976
C        7.48564168       1.82968987       3.15147087    -154.87231859
C        8.42920227      10.04491799       9.89357173    -155.64643029
C        4.88847232       6.74015350       1.04022553    -155.28128250
C        9.94888353       1.91878480       9.81039423    -156.35755791
C        7.28969954       1.42120452       0.50437241    -155.66363734
C       10.94659396       5.45409224       0.16140373    -155.91682387
C        1.51058994       3.84813490      10.29831296    -155.07209522
C        5.55874462       8.09426516       1.68269023    -155.26429063
C        1.89854720       9.07475050       5.10309200    -156.58408772
C        8.26783942      10.63056034       2.79514494    -152.56354494
C        8.71571332       3.89321493       8.92347955    -156.54250984
C        9.63239803       3.91173110       1.29335583    -156.83862415
C        3.00794637       2.13914977       7.36620649    -155.25591442
C        2.05685450       0.41514945       5.32800802    -155.41034211
C        9.98493680       5.99084588       1.34401976    -155.64634106
C        5.06831905       2.99004346      10.29661305    -154.31246860
C        6.29729328       4.25586712       1.40914373    -154.63792079
C        0.65236402       6.02945978       1.72246610    -155.08967468
C        3.87415006       9.22416014       6.52898743    -155.99719935
C        2.53160427       8.32624981       0.32245672    -153.90679867
C        1.61856684       7.58115971       8.45901534    -156.40138091
C        0.09315601       7.15605177       8.01109842    -155.29438367
C        3.20613713       3.45377606       0.50526970    -154.77793587
C       10.28256185       8.19086984       5.52754365    -156.51098803
C       10.50730572       3.00288966       7.34319308    -156.68380849
C        4.03847162       7.81016412      10.63134574    -154.80107770
C        2.93405385       9.94640897       7.57853452    -154.62349247
C        3.51977151       3.94151189       6.03136412    -157.47319229
C        4.70846419       1.57682209       5.15614443    -156.20377429
C        3.83659054       7.23510859       5.98643471    -154.59224343
C        9.83297728       4.89803703       5.82255427    -155.51507970
C        4.96351605       5.00121543       2.95442055    -156.90734509
C        1.07173206      10.53955031       0.88907185    -155.82188200
C        2.23965996       0.13676895       2.35826671    -155.59467073
C        4.51977359      10.57437706       1.28840671    -157.38237742
C        2.02720282       1.86204206       1.33430442    -155.46135606
C        6.15121891       8.41918568       5.94394759    -155.60601994
C        1.05291787       7.62777827       7.13398514    -156.14507633
C        2.56519374       5.34587865       5.96953239    -155.95549629
C        3.06506568       2.93780872      10.04101249    -156.61337662
C        9.06816601       5.16297636       2.29028085    -155.97706478
C        1.05707943       0.22087495       3.17094458    -156.72704772
C        2.70331724       3.67458215       2.99006498    -157.31343453
C        9.08398168       1.57185145       5.24714369    -154.01595858
C       10.55663554       0.84311066       9.82889964    -156.53536984
C       10.31552730       2.60619613       1.19570753    -155.43475516
C        3.43342011       0.58074487       4.88272703    -155.75508542
C        7.07722088       5.56790050       3.90979448    -155.39407239
C        4.99360885       7.94368279       4.28503465    -153.93355318
C        9.59702258       2.07832938       6.88982136    -157.36044500
C        5.44107390       3.60991005       3.62433782    -154.44189855
C        1.38119196       8.37689222       9.43670335    -155.79417334
C        2.79664044       5.00224829       3.24923751    -155.37483170
C        9.23575830       2.36920857       0.12115555    -157.31398454
C        1.00807991       9.34170175       1.25890565    -156.54908861
C        0.69921713       7.50869812      10.65891019    -156.40797112
C        8.36426120       1.97725974       2.27791881    -155.43774475
C       10.35129007       9.59553784       4.94948636    -156.43603340
C        9.82915785       7.68411217       4.34445638    -154.90349518
C        8.62286351       2.77797365       5.96143089    -157.60377220
C        3.03567220       9.45899591       2.76850576    -155.58405850
C        8.86830761       3.82922065       3.55294137    -156.51346433
C        6.20985523       1.92200173       4.72933657    -155.76505481
C        1.21932344       0.19977986       7.15044635    -154.49837262
C        5.25752608       5.18631254       1.62123506    -156.09629642
C        1.69372892       6.39129429       5.12351251    -154.94241566
C        3.35862384       8.15785060       7.27858554    -155.61119118
C        3.19047209       4.76688533       0.83992601    -155.95504449
C        0.87492382       3.86729660       2.41656950    -154.71107119
C       10.50308821       1.13717880       4.33875413    -154.40039271
C        1.05114372       2.14129081       8.28398862    -154.33675543
C        1.12284787       6.88217174       1.09676815    -154.44944929
C        3.94711731       6.10486932       8.78815338    -156.05740000
C        6.21637516      10.82716953       4.59178330    -154.28089832
C        6.15000315       5.23412535       9.69768339    -156.02521782
C        0.69457464       1.06870879       5.33678733    -155.81818265
C        4.51124174       0.69701155       6.59070081    -154.80504170
C        9.23298249       5.30355291       3.63042739    -156.18280791
C        6.47321300       3.66909508       7.54231987    -157.58364911
C        8.20832087       3.69379765      10.41501538    -156.07019321
C        7.96070346       2.57196112       0.56077409    -156.71619212
C       10.83297937       5.58697613       8.81863351    -154.73300942
C        7.07741454       6.71928112       1.98586690    -156.18988929
C        7.06576259       5.78388657       5.79985287    -156.11229187
C        9.76731536       2.99039851       8.63113715    -156.69559156
C        7.42804898       8.56036473       4.99675047    -156.13962678
C       10.46446355       6.49960472       6.67915021    -155.15356861
C        6.23165288       9.00016940       0.63564783    -156.93106433
C        5.40493456       1.02436252       0.71244957    -157.16277730
C       10.13041943       7.88264722      -0.24137184    -156.65137584
C        3.11458916       7.24535112       8.22204930    -155.69746773
C       10.46924053       9.08463798       2.26908571    -156.97898824
C        6.42052638       3.29978310       6.20534723    -155.42531572
C        8.10527157       7.37329664       5.41546758    -155.61669980
C        4.45807097       1.81245402       9.28929487    -155.62458061
C        2.00318882       2.12623902       5.15874809    -154.62877375
C        3.48564409       5.96062397       2.18475699    -154.40175291
C        7.49875685       1.38800238       7.75943563    -156.54002787
C        2.06332064       2.53051762       2.76908675    -156.00698289
C        7.45761459       3.73038886       3.99333779    -154.91064682
C        2.85243639       2.96665349       6.43520160    -155.49158357
C        0.63854414       1.77344204       1.32909709    -156.99535997
C        4.39859545       9.80036688       9.32271219    -155.37668326
C        1.17822422       4.34572593       0.61428269    -155.45928919
C        9.27133817       8.96997976       9.70595703    -156.92180494
C        6.14344018       2.34222510       8.01294896    -156.37169048
C        8.15920623       8.80921942       1.68194786    -155.93145884
C       10.06760863      10.44568917       9.84966443    -155.08721409
C        5.00515321       8.29111105       8.65283797    -155.88331682
C        6.63716875       1.12272952       9.44101769    -155.37317640
C        7.74082264      10.45544754       6.18329136    -153.83447325
C        1.40897159       1.52976241       3.93103267    -156.45047239
C        7.55388575       4.29669736       8.23674604    -156.50769750
C        5.58683626       5.03211516       7.11883653    -155.77280837
C        7.06018945       5.62177060       8.77867474    -157.43661799
C        2.52267434       6.02873893       0.23671966    -154.65765280
C        5.95621280       0.01845366       3.45273244    -155.50491941
C        1.09506824       8.21919818       5.94492665    -156.41097890
C        8.64047593       6.39224108       4.39370013    -155.44301981
C        6.71463325       7.98897800      10.25043560    -155.44306228
C        9.34744704       4.63805757       0.15174111    -155.33558728
C        0.45225171       6.46002251       3.80716479    -155.68783778
C        2.00552352       2.41003881       9.69519807    -155.66085239
C        6.01828123       5.87651044       3.12879098    -157.39848844
C        9.18140404       7.03320599       6.92374435    -156.33206449
C        0.96820829      10.13160291       4.81961499    -156.14440860
C        0.00156713       5.17515550       2.95310796    -155.87487177
C        7.66998566       8.62663991       7.63732146    -155.45088732
C        5.72038720       7.24554478       2.92141207    -155.81310554
C        3.82801565       3.22051110       3.28832481    -154.45135596
C        3.53083172       0.92267961       7.52222213    -155.60604068
C       -0.26821974       4.31102829       6.70391733    -156.73172452
C        0.87157241       9.17521764       8.55923504    -155.31996042
C       -0.06623763       6.51587226      10.09112772    -156.03230993
C        4.66679475       4.67317481       6.25073927    -155.90704884
C        8.30412939      10.09873430       1.73752864    -157.37494437
C        8.31303781       6.52017585       9.39328020    -154.71860145
C        3.95981288       7.84777744       4.87688492    -156.59714869
C        6.25300941       8.85282547       9.05255477    -156.80574150
C        6.50387603       9.43962979       3.47946845    -154.66426104
C        4.00810984      10.57676555       7.18581104    -155.81445687
C       -0.03441285       0.61719191       2.01013911    -156.03079912
C        3.73519812       9.14612542       4.98349543    -156.17512022
C        6.51285976       6.21149059       7.92712475    -154.57881485
C       -0.00525975       8.55670668       3.82420697    -156.78463354
C        8.82891907       1.35154027       7.87024214    -154.88637680
C        3.77893328       4.75953697       9.01325229    -154.67411473
C       10.17693040       0.10851915       6.43348017    -154.18900094
C        1.35182000       8.40753373       3.71951156    -157.45903742
C        4.97960069       0.87588890      10.10359735    -155.88385647
C        3.51479011       8.56992944       1.94160455    -154.63875141
C        8.79629791       8.48338438       6.48558580    -155.80894456
C        4.99361961       1.83662940       2.70992324    -156.35774449
C        1.32289993       1.13269231       9.42873096    -156.55596273
C        2.19513939       5.20846524       7.53209886    -154.61380197
C        9.77460994      10.31180470       2.25650848    -157.19585862
C        8.30168710       5.50171139       6.75727100    -155.22751835
C        2.68687755       9.83949721       9.18775183    -155.83237399
C        7.84443140       5.68592626       1.44413186    -155.81601031
C        9.41523923       8.44071436       8.27484351    -154.32218203
C        6.10365356       2.32237482       3.44000459    -157.34284631
C        8.85500954       3.78859482       5.16645151    -156.16396553
C        7.89809708      10.89839383       0.29826628    -156.86675979
C        6.62311755       6.80852667       6.63933130    -155.26837379
C        8.45947798       3.53529668       2.17314808    -155.44897521
C        4.60749138       0.52314249       2.47424827    -155.55265914
C        7.31113138       8.44133838       3.32149467    -156.30928933
C        4.75097284       9.43981269       0.24608534    -155.86615701
C        3.86656499       5.48780006       5.17751172    -155.83338281
C        7.12047189       2.32524746       5.56154195    -156.05010023
C        9.50448479       9.64551320       6.00594070    -156.47222978
C        2.66579000       4.57635495       8.47350766    -156.96680630
C        6.90084929       9.61195601       7.97150545    -157.17415110
200
Lattice="10.758957740055605 0.0 0.0 0.0 10.758957740055605 0.0 0.0 0.0 10.758957740055605" Properties=species:S:1:pos:R:3:gap17_energy:R:1 anneal_T=3700 density=3.2 run_id=465 time=2 pbc="T T T"
C        5.91926654       9.39527061       6.57049549    -155.03719300
C       10.18134158       0.41469219       5.29460145    -154.81743542
C        5.35374344       8.80822959      10.63203432    -157.23093588
C        5.29001814       2.00537289       0.18347896    -154.78110714
C        2.93667903       7.68796388      10.00825146    -155.26418151
C        2.73891863       1.05658560       2.89882902    -156.58917629
C        2.32395639       9.51043449       0.96216929    -155.33652372
C        7.70259606       7.47634594       3.85757050    -156.23452422
C        8.04487078       6.93201799       7.68948089    -154.56617564
C       10.94261315       7.52966733       7.19777500    -155.82125256
C        8.02546162       5.63690845      -0.02808077    -155.82161228
C        6.77275314       0.13211032       5.20004097    -155.59757715
C        7.49002057       1.86348376       6.52522180    -156.42231974
C        1.08478267      10.59799297       3.90203728    -154.73107662